ANIMSTEPS  12
CRYSTAL
PRIMVEC
    4.999999966    0.000000000    0.000000000
   -1.249999991    2.165063495    0.000000000
    0.000000000    0.000000000   10.583544278
PRIMCOORD  1
      4   1
   B      1.25000   0.72169   0.00000  -0.00038   0.05003   0.00001
   N     -1.25000  -0.72169   0.00000  -0.00038   0.04997   0.00001
   B      3.75000   0.72169   0.00000  -0.00038   0.05003   0.00001
   N      1.25000  -0.72169   0.00000  -0.00038   0.04997   0.00001
PRIMCOORD  2
      4   1
   B      1.25000   0.72169   0.00000  -0.05003  -0.00038  -0.00002
   N     -1.25000  -0.72169   0.00000  -0.04997  -0.00038  -0.00002
   B      3.75000   0.72169   0.00000  -0.05003  -0.00038  -0.00002
   N      1.25000  -0.72169   0.00000  -0.04997  -0.00038  -0.00002
PRIMCOORD  3
      4   1
   B      1.25000   0.72169   0.00000   0.00002   0.00001  -0.05018
   N     -1.25000  -0.72169   0.00000   0.00002   0.00001  -0.04982
   B      3.75000   0.72169   0.00000   0.00002   0.00001  -0.05018
   N      1.25000  -0.72169   0.00000   0.00002   0.00001  -0.04982
PRIMCOORD  4
      4   1
   B      1.25000   0.72169   0.00000  -0.00000   0.00000   0.02476
   N     -1.25000  -0.72169   0.00000   0.00000   0.00000  -0.06623
   B      3.75000   0.72169   0.00000   0.00000   0.00000  -0.02476
   N      1.25000  -0.72169   0.00000   0.00000   0.00000   0.06623
PRIMCOORD  5
      4   1
   B      1.25000   0.72169   0.00000  -0.02555   0.04425   0.00000
   N     -1.25000  -0.72169   0.00000   0.02444  -0.04233   0.00000
   B      3.75000   0.72169   0.00000   0.02555  -0.04425   0.00000
   N      1.25000  -0.72169   0.00000  -0.02444   0.04233  -0.00000
PRIMCOORD  6
      4   1
   B      1.25000   0.72169   0.00000  -0.00000   0.00000  -0.06794
   N     -1.25000  -0.72169   0.00000  -0.00000  -0.00000  -0.01960
   B      3.75000   0.72169   0.00000   0.00000   0.00000   0.06794
   N      1.25000  -0.72169   0.00000   0.00000   0.00000   0.01960
PRIMCOORD  7
      4   1
   B      1.25000   0.72169   0.00000  -0.00000  -0.00000  -0.05582
   N     -1.25000  -0.72169   0.00000   0.00000   0.00000   0.04340
   B      3.75000   0.72169   0.00000  -0.00000  -0.00000  -0.05582
   N      1.25000  -0.72169   0.00000  -0.00000   0.00000   0.04340
PRIMCOORD  8
      4   1
   B      1.25000   0.72169   0.00000  -0.00455  -0.00262   0.00000
   N     -1.25000  -0.72169   0.00000  -0.06107  -0.03525   0.00000
   B      3.75000   0.72169   0.00000   0.00455   0.00262  -0.00000
   N      1.25000  -0.72169   0.00000   0.06107   0.03525   0.00000
PRIMCOORD  9
      4   1
   B      1.25000   0.72169   0.00000  -0.02753   0.04765  -0.00000
   N     -1.25000  -0.72169   0.00000  -0.02220   0.03846  -0.00000
   B      3.75000   0.72169   0.00000   0.02753  -0.04765  -0.00000
   N      1.25000  -0.72169   0.00000   0.02220  -0.03846  -0.00000
PRIMCOORD 10
      4   1
   B      1.25000   0.72169   0.00000   0.06113   0.03531   0.00000
   N     -1.25000  -0.72169   0.00000  -0.00352  -0.00202  -0.00000
   B      3.75000   0.72169   0.00000  -0.06113  -0.03531  -0.00000
   N      1.25000  -0.72169   0.00000   0.00352   0.00202   0.00000
PRIMCOORD 11
      4   1
   B      1.25000   0.72169   0.00000  -0.05595   0.00045   0.00000
   N     -1.25000  -0.72169   0.00000   0.04324  -0.00035  -0.00000
   B      3.75000   0.72169   0.00000  -0.05595   0.00045   0.00000
   N      1.25000  -0.72169   0.00000   0.04324  -0.00035  -0.00000
PRIMCOORD 12
      4   1
   B      1.25000   0.72169   0.00000   0.00045   0.05595  -0.00000
   N     -1.25000  -0.72169   0.00000  -0.00035  -0.04324   0.00000
   B      3.75000   0.72169   0.00000   0.00045   0.05595   0.00000
   N      1.25000  -0.72169   0.00000  -0.00035  -0.04324   0.00000
