[Molden Format]
[FREQ]
  337.73
  555.83
  646.59
 1134.58
 1227.17
 1278.41
[FR-COORD]
   B           2.36216        1.36379        0.00000
   N          -2.36216       -1.36379        0.00000
[FR-NORM-COORD]
 vibration     1
   0.00000   0.00000   0.35018
   0.00000   0.00000   0.93668
 vibration     2
   0.36135   0.62579   0.00000
   0.34561   0.59863   0.00000
 vibration     3
   0.00000   0.00000   0.96080
   0.00000   0.00000   0.27726
 vibration     4
   0.06482   0.03740   0.00001
   0.86361   0.49857   0.00000
 vibration     5
   0.38946   0.67377   0.00000
   0.31395   0.54387   0.00000
 vibration     6
   0.86442   0.49943   0.00000
   0.05018   0.02874   0.00000
