[Molden Format]
[FREQ]
   48.43
   48.50
   52.57
  825.52
 1338.01
 1338.01
[FR-COORD]
   B           2.36216        1.36379        0.00000
   N          -2.36216       -1.36379        0.00000
[FR-NORM-COORD]
 vibration     1
  -0.00071   0.70760  -0.00162
  -0.00071   0.70661  -0.00161
 vibration     2
   0.70760   0.00071   0.00094
   0.70661   0.00071   0.00094
 vibration     3
  -0.00094   0.00161   0.70954
  -0.00094   0.00161   0.70466
 vibration     4
   0.00000  -0.00000   0.78956
   0.00000  -0.00000  -0.61367
 vibration     5
  -0.79119  -0.00414  -0.00000
   0.61155   0.00320  -0.00000
 vibration     6
  -0.00414   0.79118  -0.00000
   0.00320  -0.61155  -0.00000
