ANIMSTEPS   6
CRYSTAL
PRIMVEC
    2.499999983    0.000000000    0.000000000
   -1.249999991    2.165063495    0.000000000
    0.000000000    0.000000000   10.583544178
PRIMCOORD  1
      2   1
   B      1.25000   0.72169   0.00000   0.00000   0.00000   0.03502
   N     -1.25000  -0.72169   0.00000   0.00000   0.00000   0.09367
PRIMCOORD  2
      2   1
   B      1.25000   0.72169   0.00000   0.03614   0.06258   0.00000
   N     -1.25000  -0.72169   0.00000   0.03456   0.05986   0.00000
PRIMCOORD  3
      2   1
   B      1.25000   0.72169   0.00000   0.00000   0.00000   0.09608
   N     -1.25000  -0.72169   0.00000   0.00000   0.00000   0.02773
PRIMCOORD  4
      2   1
   B      1.25000   0.72169   0.00000   0.00648   0.00374   0.00000
   N     -1.25000  -0.72169   0.00000   0.08636   0.04986   0.00000
PRIMCOORD  5
      2   1
   B      1.25000   0.72169   0.00000   0.03895   0.06738   0.00000
   N     -1.25000  -0.72169   0.00000   0.03139   0.05439   0.00000
PRIMCOORD  6
      2   1
   B      1.25000   0.72169   0.00000   0.08644   0.04994   0.00000
   N     -1.25000  -0.72169   0.00000   0.00502   0.00287   0.00000
