[Molden Format]
[FREQ]
  337.73
  555.88
  646.59
 1134.65
 1227.15
 1278.38
[FR-COORD]
   B           2.36216        1.36379        0.00000
   N          -2.36216       -1.36379        0.00000
[FR-NORM-COORD]
 vibration     1
   0.00000   0.00000   0.35018
   0.00000   0.00000   0.93668
 vibration     2
   0.72267   0.00000   0.00000
   0.69120   0.00003   0.00000
 vibration     3
   0.00000   0.00000   0.96080
   0.00000   0.00000   0.27726
 vibration     4
   0.00010   0.07476   0.00001
   0.00004   0.99720   0.00000
 vibration     5
   0.77819   0.00029   0.00000
   0.62803   0.00007   0.00000
 vibration     6
   0.00019   0.99833   0.00000
   0.00016   0.05777   0.00000
