ANIMSTEPS   6
CRYSTAL
PRIMVEC
    2.499999983    0.000000000    0.000000000
   -1.249999991    2.165063495    0.000000000
    0.000000000    0.000000000   10.583544178
PRIMCOORD  1
      2   1
   B      1.25000   0.72169   0.00000  -0.00007   0.07076  -0.00016
   N     -1.25000  -0.72169   0.00000  -0.00007   0.07066  -0.00016
PRIMCOORD  2
      2   1
   B      1.25000   0.72169   0.00000   0.07076   0.00007   0.00009
   N     -1.25000  -0.72169   0.00000   0.07066   0.00007   0.00009
PRIMCOORD  3
      2   1
   B      1.25000   0.72169   0.00000  -0.00009   0.00016   0.07095
   N     -1.25000  -0.72169   0.00000  -0.00009   0.00016   0.07047
PRIMCOORD  4
      2   1
   B      1.25000   0.72169   0.00000   0.00000  -0.00000   0.07896
   N     -1.25000  -0.72169   0.00000   0.00000  -0.00000  -0.06137
PRIMCOORD  5
      2   1
   B      1.25000   0.72169   0.00000  -0.07912  -0.00041  -0.00000
   N     -1.25000  -0.72169   0.00000   0.06116   0.00032  -0.00000
PRIMCOORD  6
      2   1
   B      1.25000   0.72169   0.00000  -0.00041   0.07912  -0.00000
   N     -1.25000  -0.72169   0.00000   0.00032  -0.06116  -0.00000
