ANIMSTEPS   6
CRYSTAL
PRIMVEC
    2.499999983    0.000000000    0.000000000
   -1.249999991    2.165063495    0.000000000
    0.000000000    0.000000000   10.583544178
PRIMCOORD  1
      2   1
   B      1.25000   0.72169   0.00000   0.00000   0.00000   0.03502
   N     -1.25000  -0.72169   0.00000   0.00000   0.00000   0.09367
PRIMCOORD  2
      2   1
   B      1.25000   0.72169   0.00000   0.07227   0.00000   0.00000
   N     -1.25000  -0.72169   0.00000   0.06912   0.00000   0.00000
PRIMCOORD  3
      2   1
   B      1.25000   0.72169   0.00000   0.00000   0.00000   0.09608
   N     -1.25000  -0.72169   0.00000   0.00000   0.00000   0.02773
PRIMCOORD  4
      2   1
   B      1.25000   0.72169   0.00000   0.00001   0.00748   0.00000
   N     -1.25000  -0.72169   0.00000   0.00000   0.09972   0.00000
PRIMCOORD  5
      2   1
   B      1.25000   0.72169   0.00000   0.07782   0.00003   0.00000
   N     -1.25000  -0.72169   0.00000   0.06280   0.00001   0.00000
PRIMCOORD  6
      2   1
   B      1.25000   0.72169   0.00000   0.00002   0.09983   0.00000
   N     -1.25000  -0.72169   0.00000   0.00002   0.00578   0.00000
