ANIMSTEPS  24
CRYSTAL
PRIMVEC
    4.999999966    0.000000000    0.000000000
   -2.499999983    4.330126990    0.000000000
    0.000000000    0.000000000   10.583544278
PRIMCOORD  1
      8   1
   B      1.25000   0.72169   0.00000   0.00000  -0.00000  -0.03549
   N     -1.25000  -0.72169   0.00000   0.00000  -0.00000  -0.03522
   B      3.75000   0.72169   0.00000   0.00000  -0.00000  -0.03549
   N      1.25000  -0.72169   0.00000   0.00000  -0.00000  -0.03522
   B     -0.00000   2.88675   0.00000   0.00000  -0.00000  -0.03549
   N     -2.50000   1.44338   0.00000   0.00000  -0.00000  -0.03523
   B      2.50000   2.88675   0.00000   0.00000  -0.00000  -0.03549
   N      0.00000   1.44338   0.00000   0.00000  -0.00000  -0.03522
PRIMCOORD  2
      8   1
   B      1.25000   0.72169   0.00000  -0.03536   0.00106  -0.00000
   N     -1.25000  -0.72169   0.00000  -0.03532   0.00106  -0.00000
   B      3.75000   0.72169   0.00000  -0.03536   0.00106  -0.00000
   N      1.25000  -0.72169   0.00000  -0.03532   0.00106  -0.00000
   B     -0.00000   2.88675   0.00000  -0.03536   0.00106  -0.00000
   N     -2.50000   1.44338   0.00000  -0.03532   0.00106  -0.00000
   B      2.50000   2.88675   0.00000  -0.03536   0.00106  -0.00000
   N      0.00000   1.44338   0.00000  -0.03532   0.00106  -0.00000
PRIMCOORD  3
      8   1
   B      1.25000   0.72169   0.00000  -0.00106  -0.03536   0.00000
   N     -1.25000  -0.72169   0.00000  -0.00106  -0.03532   0.00000
   B      3.75000   0.72169   0.00000  -0.00106  -0.03536   0.00000
   N      1.25000  -0.72169   0.00000  -0.00106  -0.03532   0.00000
   B     -0.00000   2.88675   0.00000  -0.00106  -0.03536   0.00000
   N     -2.50000   1.44338   0.00000  -0.00106  -0.03532   0.00000
   B      2.50000   2.88675   0.00000  -0.00106  -0.03536   0.00000
   N      0.00000   1.44338   0.00000  -0.00106  -0.03532   0.00000
PRIMCOORD  4
      8   1
   B      1.25000   0.72169   0.00000   0.00000   0.00000  -0.00386
   N     -1.25000  -0.72169   0.00000  -0.00000  -0.00000   0.01034
   B      3.75000   0.72169   0.00000  -0.00000  -0.00000  -0.02164
   N      1.25000  -0.72169   0.00000  -0.00000   0.00000   0.05792
   B     -0.00000   2.88675   0.00000  -0.00000  -0.00000   0.02719
   N     -2.50000   1.44338   0.00000   0.00000   0.00000  -0.07275
   B      2.50000   2.88675   0.00000  -0.00000  -0.00000  -0.00168
   N      0.00000   1.44338   0.00000  -0.00000  -0.00000   0.00450
PRIMCOORD  5
      8   1
   B      1.25000   0.72169   0.00000  -0.00000   0.00000  -0.02591
   N     -1.25000  -0.72169   0.00000  -0.00000   0.00000   0.06934
   B      3.75000   0.72169   0.00000  -0.00000   0.00000   0.01971
   N      1.25000  -0.72169   0.00000  -0.00000  -0.00000  -0.05272
   B     -0.00000   2.88675   0.00000  -0.00000   0.00000   0.01167
   N     -2.50000   1.44338   0.00000  -0.00000   0.00000  -0.03121
   B      2.50000   2.88675   0.00000  -0.00000   0.00000  -0.00546
   N      0.00000   1.44338   0.00000  -0.00000   0.00000   0.01460
PRIMCOORD  6
      8   1
   B      1.25000   0.72169   0.00000  -0.00000   0.00000   0.01526
   N     -1.25000  -0.72169   0.00000  -0.00000   0.00000  -0.04082
   B      3.75000   0.72169   0.00000   0.00000   0.00000   0.00790
   N      1.25000  -0.72169   0.00000  -0.00000   0.00000  -0.02114
   B     -0.00000   2.88675   0.00000   0.00000   0.00000   0.00662
   N     -2.50000   1.44338   0.00000  -0.00000   0.00000  -0.01771
   B      2.50000   2.88675   0.00000  -0.00000   0.00000  -0.02978
   N      0.00000   1.44338   0.00000   0.00000   0.00000   0.07967
PRIMCOORD  7
      8   1
   B      1.25000   0.72169   0.00000   0.02345   0.03170  -0.00000
   N     -1.25000  -0.72169   0.00000  -0.02244  -0.03034  -0.00000
   B      3.75000   0.72169   0.00000   0.02673  -0.03170   0.00000
   N      1.25000  -0.72169   0.00000  -0.02558   0.03034  -0.00000
   B     -0.00000   2.88675   0.00000  -0.04339   0.00284  -0.00000
   N     -2.50000   1.44338   0.00000   0.04153  -0.00271   0.00000
   B      2.50000   2.88675   0.00000  -0.00678  -0.00284   0.00000
   N      0.00000   1.44338   0.00000   0.00649   0.00271   0.00000
PRIMCOORD  8
      8   1
   B      1.25000   0.72169   0.00000  -0.00450  -0.02110  -0.00000
   N     -1.25000  -0.72169   0.00000   0.00431   0.02020  -0.00000
   B      3.75000   0.72169   0.00000   0.03491   0.02110   0.00000
   N      1.25000  -0.72169   0.00000  -0.03341  -0.02020   0.00000
   B     -0.00000   2.88675   0.00000  -0.00302   0.03413  -0.00000
   N     -2.50000   1.44338   0.00000   0.00289  -0.03267  -0.00000
   B      2.50000   2.88675   0.00000  -0.02739  -0.03413  -0.00000
   N      0.00000   1.44338   0.00000   0.02621   0.03267  -0.00000
PRIMCOORD  9
      8   1
   B      1.25000   0.72169   0.00000   0.03724  -0.02251  -0.00000
   N     -1.25000  -0.72169   0.00000  -0.03564   0.02155  -0.00000
   B      3.75000   0.72169   0.00000   0.00491   0.02251   0.00000
   N      1.25000  -0.72169   0.00000  -0.00470  -0.02155   0.00000
   B     -0.00000   2.88675   0.00000  -0.00808  -0.02800   0.00000
   N     -2.50000   1.44338   0.00000   0.00773   0.02680   0.00000
   B      2.50000   2.88675   0.00000  -0.03407   0.02800   0.00000
   N      0.00000   1.44338   0.00000   0.03261  -0.02680   0.00000
PRIMCOORD 10
      8   1
   B      1.25000   0.72169   0.00000   0.00000  -0.00000   0.08232
   N     -1.25000  -0.72169   0.00000  -0.00000   0.00000   0.02375
   B      3.75000   0.72169   0.00000   0.00000   0.00000  -0.03737
   N      1.25000  -0.72169   0.00000  -0.00000  -0.00000  -0.01078
   B     -0.00000   2.88675   0.00000  -0.00000  -0.00000  -0.02735
   N     -2.50000   1.44338   0.00000   0.00000   0.00000  -0.00789
   B      2.50000   2.88675   0.00000  -0.00000   0.00000  -0.01759
   N      0.00000   1.44338   0.00000   0.00000  -0.00000  -0.00508
PRIMCOORD 11
      8   1
   B      1.25000   0.72169   0.00000  -0.00000   0.00000   0.00764
   N     -1.25000  -0.72169   0.00000  -0.00000  -0.00000   0.00220
   B      3.75000   0.72169   0.00000  -0.00000  -0.00000   0.07006
   N      1.25000  -0.72169   0.00000   0.00000  -0.00000   0.02021
   B     -0.00000   2.88675   0.00000   0.00000  -0.00000  -0.06382
   N     -2.50000   1.44338   0.00000  -0.00000   0.00000  -0.01841
   B      2.50000   2.88675   0.00000   0.00000   0.00000  -0.01387
   N      0.00000   1.44338   0.00000  -0.00000  -0.00000  -0.00400
PRIMCOORD 12
      8   1
   B      1.25000   0.72169   0.00000   0.00000   0.00000   0.00940
   N     -1.25000  -0.72169   0.00000  -0.00000   0.00000   0.00271
   B      3.75000   0.72169   0.00000   0.00000   0.00000   0.02488
   N      1.25000  -0.72169   0.00000  -0.00000   0.00000   0.00718
   B     -0.00000   2.88675   0.00000  -0.00000  -0.00000   0.04585
   N     -2.50000   1.44338   0.00000   0.00000   0.00000   0.01323
   B      2.50000   2.88675   0.00000   0.00000  -0.00000  -0.08014
   N      0.00000   1.44338   0.00000   0.00000   0.00000  -0.02312
PRIMCOORD 13
      8   1
   B      1.25000   0.72169   0.00000  -0.00000   0.00000   0.03947
   N     -1.25000  -0.72169   0.00000   0.00000  -0.00000  -0.03070
   B      3.75000   0.72169   0.00000  -0.00000  -0.00000   0.03947
   N      1.25000  -0.72169   0.00000  -0.00000  -0.00000  -0.03069
   B     -0.00000   2.88675   0.00000   0.00000   0.00000   0.03947
   N     -2.50000   1.44338   0.00000   0.00000   0.00000  -0.03069
   B      2.50000   2.88675   0.00000  -0.00000  -0.00000   0.03947
   N      0.00000   1.44338   0.00000  -0.00000   0.00000  -0.03070
PRIMCOORD 14
      8   1
   B      1.25000   0.72169   0.00000  -0.00294   0.00262   0.00000
   N     -1.25000  -0.72169   0.00000  -0.03998   0.03553   0.00000
   B      3.75000   0.72169   0.00000   0.00294   0.00292   0.00000
   N      1.25000  -0.72169   0.00000   0.03998   0.03964  -0.00000
   B     -0.00000   2.88675   0.00000  -0.00026  -0.00447   0.00000
   N     -2.50000   1.44338   0.00000  -0.00356  -0.06067  -0.00000
   B      2.50000   2.88675   0.00000   0.00026  -0.00107  -0.00000
   N      0.00000   1.44338   0.00000   0.00356  -0.01451  -0.00000
PRIMCOORD 15
      8   1
   B      1.25000   0.72169   0.00000   0.00226  -0.00064   0.00000
   N     -1.25000  -0.72169   0.00000   0.03071  -0.00866   0.00000
   B      3.75000   0.72169   0.00000  -0.00226   0.00340   0.00000
   N      1.25000  -0.72169   0.00000  -0.03071   0.04621  -0.00000
   B     -0.00000   2.88675   0.00000  -0.00350  -0.00008  -0.00000
   N     -2.50000   1.44338   0.00000  -0.04752  -0.00105  -0.00000
   B      2.50000   2.88675   0.00000   0.00350  -0.00269   0.00000
   N      0.00000   1.44338   0.00000   0.04752  -0.03651  -0.00000
PRIMCOORD 16
      8   1
   B      1.25000   0.72169   0.00000  -0.00254  -0.00360   0.00000
   N     -1.25000  -0.72169   0.00000  -0.03448  -0.04891   0.00000
   B      3.75000   0.72169   0.00000   0.00254  -0.00035  -0.00000
   N      1.25000  -0.72169   0.00000   0.03448  -0.00480  -0.00000
   B     -0.00000   2.88675   0.00000  -0.00281   0.00051   0.00000
   N     -2.50000   1.44338   0.00000  -0.03820   0.00695   0.00000
   B      2.50000   2.88675   0.00000   0.00281   0.00344  -0.00000
   N      0.00000   1.44338   0.00000   0.03820   0.04676  -0.00000
PRIMCOORD 17
      8   1
   B      1.25000   0.72169   0.00000  -0.01334  -0.04313   0.00000
   N     -1.25000  -0.72169   0.00000  -0.01076  -0.03478   0.00000
   B      3.75000   0.72169   0.00000  -0.01887   0.04313   0.00000
   N      1.25000  -0.72169   0.00000  -0.01522   0.03478  -0.00000
   B     -0.00000   2.88675   0.00000   0.04100  -0.00479  -0.00000
   N     -2.50000   1.44338   0.00000   0.03307  -0.00386   0.00000
   B      2.50000   2.88675   0.00000  -0.00879   0.00479  -0.00000
   N      0.00000   1.44338   0.00000  -0.00709   0.00387   0.00000
PRIMCOORD 18
      8   1
   B      1.25000   0.72169   0.00000   0.02684   0.00554   0.00000
   N     -1.25000  -0.72169   0.00000   0.02165   0.00446   0.00000
   B      3.75000   0.72169   0.00000  -0.02782  -0.00554   0.00000
   N      1.25000  -0.72169   0.00000  -0.02244  -0.00447   0.00000
   B     -0.00000   2.88675   0.00000  -0.00270  -0.04734  -0.00000
   N     -2.50000   1.44338   0.00000  -0.00218  -0.03818  -0.00000
   B      2.50000   2.88675   0.00000   0.00369   0.04734  -0.00000
   N      0.00000   1.44338   0.00000   0.00298   0.03818  -0.00000
PRIMCOORD 19
      8   1
   B      1.25000   0.72169   0.00000  -0.03706   0.01953  -0.00000
   N     -1.25000  -0.72169   0.00000  -0.02989   0.01575  -0.00000
   B      3.75000   0.72169   0.00000  -0.03379  -0.01953   0.00000
   N      1.25000  -0.72169   0.00000  -0.02725  -0.01575   0.00000
   B     -0.00000   2.88675   0.00000   0.02415   0.00284  -0.00000
   N     -2.50000   1.44338   0.00000   0.01948   0.00229   0.00000
   B      2.50000   2.88675   0.00000   0.04670  -0.00284   0.00000
   N      0.00000   1.44338   0.00000   0.03767  -0.00229  -0.00000
PRIMCOORD 20
      8   1
   B      1.25000   0.72169   0.00000  -0.03775   0.02927  -0.00000
   N     -1.25000  -0.72169   0.00000   0.00214  -0.00166  -0.00000
   B      3.75000   0.72169   0.00000   0.03775   0.04574  -0.00000
   N      1.25000  -0.72169   0.00000  -0.00214  -0.00260  -0.00000
   B     -0.00000   2.88675   0.00000  -0.01426  -0.05930  -0.00000
   N     -2.50000   1.44338   0.00000   0.00081   0.00337  -0.00000
   B      2.50000   2.88675   0.00000   0.01426  -0.01571  -0.00000
   N      0.00000   1.44338   0.00000  -0.00081   0.00089  -0.00000
PRIMCOORD 21
      8   1
   B      1.25000   0.72169   0.00000  -0.00066  -0.04882   0.00000
   N     -1.25000  -0.72169   0.00000   0.00004   0.00278  -0.00000
   B      3.75000   0.72169   0.00000   0.00066   0.01841   0.00000
   N      1.25000  -0.72169   0.00000  -0.00004  -0.00105   0.00000
   B     -0.00000   2.88675   0.00000  -0.05823   0.01482   0.00000
   N     -2.50000   1.44338   0.00000   0.00331  -0.00084   0.00000
   B      2.50000   2.88675   0.00000   0.05823   0.01558   0.00000
   N      0.00000   1.44338   0.00000  -0.00331  -0.00089   0.00000
PRIMCOORD 22
      8   1
   B      1.25000   0.72169   0.00000   0.04809   0.02230   0.00000
   N     -1.25000  -0.72169   0.00000  -0.00273  -0.00127   0.00000
   B      3.75000   0.72169   0.00000  -0.04809   0.03615   0.00000
   N      1.25000  -0.72169   0.00000   0.00273  -0.00205   0.00000
   B     -0.00000   2.88675   0.00000  -0.01199  -0.00146   0.00000
   N     -2.50000   1.44338   0.00000   0.00068   0.00008   0.00000
   B      2.50000   2.88675   0.00000   0.01199  -0.05699   0.00000
   N      0.00000   1.44338   0.00000  -0.00068   0.00324   0.00000
PRIMCOORD 23
      8   1
   B      1.25000   0.72169   0.00000  -0.00022  -0.03956   0.00000
   N     -1.25000  -0.72169   0.00000   0.00017   0.03057  -0.00000
   B      3.75000   0.72169   0.00000  -0.00022  -0.03957  -0.00000
   N      1.25000  -0.72169   0.00000   0.00017   0.03057  -0.00000
   B     -0.00000   2.88675   0.00000  -0.00022  -0.03957  -0.00000
   N     -2.50000   1.44338   0.00000   0.00017   0.03057   0.00000
   B      2.50000   2.88675   0.00000  -0.00022  -0.03956   0.00000
   N      0.00000   1.44338   0.00000   0.00017   0.03057   0.00000
PRIMCOORD 24
      8   1
   B      1.25000   0.72169   0.00000   0.03956  -0.00022   0.00000
   N     -1.25000  -0.72169   0.00000  -0.03057   0.00017   0.00000
   B      3.75000   0.72169   0.00000   0.03957  -0.00022  -0.00000
   N      1.25000  -0.72169   0.00000  -0.03057   0.00017  -0.00000
   B     -0.00000   2.88675   0.00000   0.03957  -0.00022  -0.00000
   N     -2.50000   1.44338   0.00000  -0.03057   0.00017  -0.00000
   B      2.50000   2.88675   0.00000   0.03956  -0.00022   0.00000
   N      0.00000   1.44338   0.00000  -0.03057   0.00017   0.00000
