ANIMSTEPS  12
CRYSTAL
PRIMVEC
    2.499999983    0.000000000    0.000000000
   -1.249999991    2.165063495    0.000000000
    0.000000000    0.000000000    6.499999956
PRIMCOORD  1
      4   1
   B      1.25000   0.72169  -1.62500   0.04991   0.00302  -0.00058
   N     -1.25000  -0.72169  -1.62500   0.04991   0.00302  -0.00058
   N      1.25000   0.72169   1.62500   0.04991   0.00302  -0.00058
   B     -1.25000  -0.72169   1.62500   0.04991   0.00302  -0.00058
PRIMCOORD  2
      4   1
   B      1.25000   0.72169  -1.62500  -0.00068   0.01990   0.04586
   N     -1.25000  -0.72169  -1.62500  -0.00068   0.01990   0.04586
   N      1.25000   0.72169   1.62500  -0.00068   0.01990   0.04586
   B     -1.25000  -0.72169   1.62500  -0.00068   0.01990   0.04586
PRIMCOORD  3
      4   1
   B      1.25000   0.72169  -1.62500  -0.00300   0.04577  -0.01991
   N     -1.25000  -0.72169  -1.62500  -0.00300   0.04577  -0.01991
   N      1.25000   0.72169   1.62500  -0.00300   0.04577  -0.01991
   B     -1.25000  -0.72169   1.62500  -0.00300   0.04577  -0.01991
PRIMCOORD  4
      4   1
   B      1.25000   0.72169  -1.62500  -0.04877   0.01140   0.00000
   N     -1.25000  -0.72169  -1.62500  -0.04861   0.01136   0.00000
   N      1.25000   0.72169   1.62500   0.04861  -0.01136   0.00000
   B     -1.25000  -0.72169   1.62500   0.04877  -0.01140   0.00000
PRIMCOORD  5
      4   1
   B      1.25000   0.72169  -1.62500   0.01140   0.04877   0.00000
   N     -1.25000  -0.72169  -1.62500   0.01136   0.04861   0.00000
   N      1.25000   0.72169   1.62500  -0.01136  -0.04861   0.00000
   B     -1.25000  -0.72169   1.62500  -0.01140  -0.04877   0.00000
PRIMCOORD  6
      4   1
   B      1.25000   0.72169  -1.62500  -0.00000   0.00000   0.05032
   N     -1.25000  -0.72169  -1.62500  -0.00000   0.00000   0.04968
   N      1.25000   0.72169   1.62500   0.00000  -0.00000  -0.04968
   B     -1.25000  -0.72169   1.62500   0.00000  -0.00000  -0.05032
PRIMCOORD  7
      4   1
   B      1.25000   0.72169  -1.62500   0.00000  -0.00000   0.05598
   N     -1.25000  -0.72169  -1.62500   0.00000  -0.00000  -0.04321
   N      1.25000   0.72169   1.62500  -0.00000   0.00000  -0.04321
   B     -1.25000  -0.72169   1.62500  -0.00000   0.00000   0.05598
PRIMCOORD  8
      4   1
   B      1.25000   0.72169  -1.62500   0.00000   0.00000   0.05571
   N     -1.25000  -0.72169  -1.62500   0.00000   0.00000  -0.04355
   N      1.25000   0.72169   1.62500  -0.00000  -0.00000   0.04355
   B     -1.25000  -0.72169   1.62500  -0.00000  -0.00000  -0.05571
PRIMCOORD  9
      4   1
   B      1.25000   0.72169  -1.62500  -0.05511   0.00981   0.00000
   N     -1.25000  -0.72169  -1.62500   0.04254  -0.00757  -0.00000
   N      1.25000   0.72169   1.62500   0.04254  -0.00757  -0.00000
   B     -1.25000  -0.72169   1.62500  -0.05511   0.00981  -0.00000
PRIMCOORD 10
      4   1
   B      1.25000   0.72169  -1.62500  -0.00981  -0.05511   0.00000
   N     -1.25000  -0.72169  -1.62500   0.00757   0.04254   0.00000
   N      1.25000   0.72169   1.62500   0.00757   0.04254   0.00000
   B     -1.25000  -0.72169   1.62500  -0.00981  -0.05511  -0.00000
PRIMCOORD 11
      4   1
   B      1.25000   0.72169  -1.62500  -0.05504   0.00979  -0.00000
   N     -1.25000  -0.72169  -1.62500   0.04263  -0.00758   0.00000
   N      1.25000   0.72169   1.62500  -0.04263   0.00758  -0.00000
   B     -1.25000  -0.72169   1.62500   0.05504  -0.00979  -0.00000
PRIMCOORD 12
      4   1
   B      1.25000   0.72169  -1.62500   0.00979   0.05504   0.00000
   N     -1.25000  -0.72169  -1.62500  -0.00758  -0.04263   0.00000
   N      1.25000   0.72169   1.62500   0.00758   0.04263   0.00000
   B     -1.25000  -0.72169   1.62500  -0.00979  -0.05504  -0.00000
