
     Program PHONON v.6.1 (svn rev. 13369) starts on  6Apr2018 at 12:55: 4 

     This program is part of the open-source Quantum ESPRESSO suite
     for quantum simulation of materials; please cite
         "P. Giannozzi et al., J. Phys.:Condens. Matter 21 395502 (2009);
          URL http://www.quantum-espresso.org", 
     in publications or presentations arising from this work. More details at
     http://www.quantum-espresso.org/quote

     Parallel version (MPI), running on     1 processors

     Reading data from directory:
     ./bn.save

   Info: using nr1, nr2, nr3 values from input

   Info: using nr1, nr2, nr3 values from input

     IMPORTANT: XC functional enforced from input :
     Exchange-correlation      =  SLA  PZ   NOGX NOGC ( 1  1  0  0 0 0)
     Any further DFT definition will be discarded
     Please, verify this is what you really want


     G-vector sticks info
     --------------------
     sticks:   dense  smooth     PW     G-vecs:    dense   smooth      PW
     Sum         313     313    109                11359    11359    2433



     Dynamical matrices for ( 2, 2, 2)  uniform grid of q-points
     (   8q-points):
       N         xq(1)         xq(2)         xq(3) 
       1   0.000000000   0.000000000   0.000000000
       2   0.000000000   0.000000000  -0.192307692
       3   0.000000000  -0.577350269   0.000000000
       4   0.000000000  -0.577350269  -0.192307692
       5  -0.500000000  -0.288675135   0.000000000
       6  -0.500000000  -0.288675135  -0.192307692
       7  -0.500000000  -0.866025404   0.000000000
       8  -0.500000000  -0.866025404  -0.192307692

     Calculation of q =    0.0000000   0.0000000   0.0000000

                                                                                

     bravais-lattice index     =            4
     lattice parameter (alat)  =       4.7243  a.u.
     unit-cell volume          =     237.4218 (a.u.)^3
     number of atoms/cell      =            4
     number of atomic types    =            2
     kinetic-energy cut-off    =      50.0000  Ry
     charge density cut-off    =     200.0000  Ry
     convergence threshold     =      1.0E-14
     beta                      =       0.7000
     number of iterations used =            4
     Exchange-correlation      =  SLA  PZ   NOGX NOGC ( 1  1  0  0 0 0)


     celldm(1)=    4.72432  celldm(2)=    0.00000  celldm(3)=    2.60000
     celldm(4)=    0.00000  celldm(5)=    0.00000  celldm(6)=    0.00000

     crystal axes: (cart. coord. in units of alat)
               a(1) = (  1.0000  0.0000  0.0000 )  
               a(2) = ( -0.5000  0.8660  0.0000 )  
               a(3) = (  0.0000  0.0000  2.6000 )  

     reciprocal axes: (cart. coord. in units 2 pi/alat)
               b(1) = (  1.0000  0.5774 -0.0000 )  
               b(2) = (  0.0000  1.1547  0.0000 )  
               b(3) = (  0.0000 -0.0000  0.3846 )  


     Atoms inside the unit cell: 

     Cartesian axes

     site n.  atom      mass           positions (alat units)
        1     B   10.8110   tau(    1) = (    0.50000    0.28868   -0.65000  )
        2     N   14.0060   tau(    2) = (   -0.50000   -0.28868   -0.65000  )
        3     N   14.0060   tau(    3) = (    0.50000    0.28868    0.65000  )
        4     B   10.8110   tau(    4) = (   -0.50000   -0.28868    0.65000  )

     Computing dynamical matrix for 
                    q = (   0.0000000   0.0000000   0.0000000 )

     No symmetry!

     G cutoff =  113.0702  (  11359 G-vectors)     FFT grid: ( 24, 24, 60)
     number of k points=   576

     PseudoPot. # 1 for B  read from file:
     /home/claudio/SOFTWARE/PSEUDO_PWSCF/B.pz-vbc.UPF
     MD5 check sum: b59596b5d63edeea6a2b3a0beace49c5
     Pseudo is Norm-conserving, Zval =  3.0
     Generated by new atomic code, or converted to UPF format
     Using radial grid of  157 points,  1 beta functions with: 
                l(1) =   0

     PseudoPot. # 2 for N  read from file:
     /home/claudio/SOFTWARE/PSEUDO_PWSCF/N.pz-vbc.UPF
     MD5 check sum: f7a51f6f78412844d17f6e69b370b417
     Pseudo is Norm-conserving, Zval =  5.0
     Generated by new atomic code, or converted to UPF format
     Using radial grid of  161 points,  1 beta functions with: 
                l(1) =   0

     Mode symmetry, C_1 (1)     point group:


     Electric field:
     Dielectric constant
     Born effective charges in two ways 


     Atomic displacements:
     There are  12 irreducible representations

     Representation     1      1 modes -A  To be done

     Representation     2      1 modes -A  To be done

     Representation     3      1 modes -A  To be done

     Representation     4      1 modes -A  To be done

     Representation     5      1 modes -A  To be done

     Representation     6      1 modes -A  To be done

     Representation     7      1 modes -A  To be done

     Representation     8      1 modes -A  To be done

     Representation     9      1 modes -A  To be done

     Representation    10      1 modes -A  To be done

     Representation    11      1 modes -A  To be done

     Representation    12      1 modes -A  To be done



     Alpha used in Ewald sum =   2.0000
     PHONON       :     4.89s CPU         5.26s WALL


     Electric Fields Calculation

      iter #   1 total cpu time :   709.8 secs   av.it.:   6.2
      thresh= 1.000E-02 alpha_mix =  0.700 |ddv_scf|^2 =  8.084E-07

      iter #   2 total cpu time :   990.9 secs   av.it.:   9.9
      thresh= 8.991E-05 alpha_mix =  0.700 |ddv_scf|^2 =  3.557E-08

      iter #   3 total cpu time :  1248.4 secs   av.it.:   8.9
      thresh= 1.886E-05 alpha_mix =  0.700 |ddv_scf|^2 =  1.835E-10

      iter #   4 total cpu time :  1536.5 secs   av.it.:  10.2
      thresh= 1.354E-06 alpha_mix =  0.700 |ddv_scf|^2 =  6.469E-12

      iter #   5 total cpu time :  1819.2 secs   av.it.:  10.0
      thresh= 2.543E-07 alpha_mix =  0.700 |ddv_scf|^2 =  4.400E-14

      iter #   6 total cpu time :  2114.5 secs   av.it.:  10.5
      thresh= 2.098E-08 alpha_mix =  0.700 |ddv_scf|^2 =  1.023E-15

     End of electric fields calculation

          Dielectric constant in cartesian axis 

          (       4.988437690      -0.000000004      -0.000000002 )
          (      -0.000000004       4.988437684       0.000000003 )
          (      -0.000000002       0.000000002       2.892862098 )

          Effective charges (d Force / dE) in cartesian axis

           atom      1   B  
      Ex  (        2.69410       -0.00000       -0.00000 )
      Ey  (       -0.00000        2.69410        0.00000 )
      Ez  (       -0.00000        0.00000        0.78645 )
           atom      2   N  
      Ex  (       -2.65819        0.00000       -0.00000 )
      Ey  (        0.00000       -2.65819        0.00000 )
      Ez  (        0.00000       -0.00000       -0.75497 )
           atom      3   N  
      Ex  (       -2.65818       -0.00000        0.00000 )
      Ey  (       -0.00000       -2.65818       -0.00000 )
      Ez  (        0.00000       -0.00000       -0.75498 )
           atom      4   B  
      Ex  (        2.69410        0.00000        0.00000 )
      Ey  (        0.00000        2.69410       -0.00000 )
      Ez  (       -0.00000        0.00000        0.78644 )


     Representation #  1 mode #   1

     Self-consistent Calculation

      iter #   1 total cpu time :  2268.6 secs   av.it.:   5.0
      thresh= 1.000E-02 alpha_mix =  0.700 |ddv_scf|^2 =  1.364E-07

      iter #   2 total cpu time :  2360.9 secs   av.it.:   9.7
      thresh= 3.693E-05 alpha_mix =  0.700 |ddv_scf|^2 =  1.353E-09

      iter #   3 total cpu time :  2450.0 secs   av.it.:   9.2
      thresh= 3.679E-06 alpha_mix =  0.700 |ddv_scf|^2 =  4.511E-11

      iter #   4 total cpu time :  2535.5 secs   av.it.:   8.8
      thresh= 6.717E-07 alpha_mix =  0.700 |ddv_scf|^2 =  1.661E-12

      iter #   5 total cpu time :  2617.6 secs   av.it.:   8.2
      thresh= 1.289E-07 alpha_mix =  0.700 |ddv_scf|^2 =  1.238E-15

     End of self-consistent calculation

     Convergence has been achieved 


     Representation #  2 mode #   2

     Self-consistent Calculation

      iter #   1 total cpu time :  2676.0 secs   av.it.:   5.0
      thresh= 1.000E-02 alpha_mix =  0.700 |ddv_scf|^2 =  1.363E-07

      iter #   2 total cpu time :  2768.8 secs   av.it.:   9.7
      thresh= 3.692E-05 alpha_mix =  0.700 |ddv_scf|^2 =  1.361E-09

      iter #   3 total cpu time :  2858.6 secs   av.it.:   9.3
      thresh= 3.689E-06 alpha_mix =  0.700 |ddv_scf|^2 =  4.673E-11

      iter #   4 total cpu time :  2947.6 secs   av.it.:   9.2
      thresh= 6.836E-07 alpha_mix =  0.700 |ddv_scf|^2 =  3.677E-12

      iter #   5 total cpu time :  3040.2 secs   av.it.:   9.7
      thresh= 1.918E-07 alpha_mix =  0.700 |ddv_scf|^2 =  1.485E-12

      iter #   6 total cpu time :  3129.7 secs   av.it.:   9.3
      thresh= 1.218E-07 alpha_mix =  0.700 |ddv_scf|^2 =  1.904E-15

     End of self-consistent calculation

     Convergence has been achieved 


     Representation #  3 mode #   3

     Self-consistent Calculation

      iter #   1 total cpu time :  3193.2 secs   av.it.:   5.8
      thresh= 1.000E-02 alpha_mix =  0.700 |ddv_scf|^2 =  2.608E-05

      iter #   2 total cpu time :  3280.1 secs   av.it.:   9.0
      thresh= 5.107E-04 alpha_mix =  0.700 |ddv_scf|^2 =  3.189E-05

      iter #   3 total cpu time :  3360.4 secs   av.it.:   8.0
      thresh= 5.647E-04 alpha_mix =  0.700 |ddv_scf|^2 =  4.464E-09

      iter #   4 total cpu time :  3449.7 secs   av.it.:   9.3
      thresh= 6.681E-06 alpha_mix =  0.700 |ddv_scf|^2 =  3.938E-11

      iter #   5 total cpu time :  3536.9 secs   av.it.:   8.9
      thresh= 6.275E-07 alpha_mix =  0.700 |ddv_scf|^2 =  1.789E-12

      iter #   6 total cpu time :  3620.6 secs   av.it.:   8.5
      thresh= 1.338E-07 alpha_mix =  0.700 |ddv_scf|^2 =  2.973E-14

      iter #   7 total cpu time :  3705.9 secs   av.it.:   8.8
      thresh= 1.724E-08 alpha_mix =  0.700 |ddv_scf|^2 =  4.986E-16

     End of self-consistent calculation

     Convergence has been achieved 


     Representation #  4 mode #   4

     Self-consistent Calculation

      iter #   1 total cpu time :  3771.2 secs   av.it.:   5.8
      thresh= 1.000E-02 alpha_mix =  0.700 |ddv_scf|^2 =  2.466E-06

      iter #   2 total cpu time :  3863.3 secs   av.it.:   9.6
      thresh= 1.570E-04 alpha_mix =  0.700 |ddv_scf|^2 =  3.511E-09

      iter #   3 total cpu time :  3956.2 secs   av.it.:   9.7
      thresh= 5.925E-06 alpha_mix =  0.700 |ddv_scf|^2 =  8.502E-11

      iter #   4 total cpu time :  4045.1 secs   av.it.:   9.1
      thresh= 9.221E-07 alpha_mix =  0.700 |ddv_scf|^2 =  4.386E-13

      iter #   5 total cpu time :  4132.5 secs   av.it.:   8.9
      thresh= 6.623E-08 alpha_mix =  0.700 |ddv_scf|^2 =  3.320E-15

     End of self-consistent calculation

     Convergence has been achieved 


     Representation #  5 mode #   5

     Self-consistent Calculation

      iter #   1 total cpu time :  4198.4 secs   av.it.:   5.9
      thresh= 1.000E-02 alpha_mix =  0.700 |ddv_scf|^2 =  2.466E-06

      iter #   2 total cpu time :  4291.2 secs   av.it.:   9.6
      thresh= 1.570E-04 alpha_mix =  0.700 |ddv_scf|^2 =  3.513E-09

      iter #   3 total cpu time :  4384.5 secs   av.it.:   9.8
      thresh= 5.927E-06 alpha_mix =  0.700 |ddv_scf|^2 =  8.616E-11

      iter #   4 total cpu time :  4475.7 secs   av.it.:   9.5
      thresh= 9.282E-07 alpha_mix =  0.700 |ddv_scf|^2 =  2.598E-12

      iter #   5 total cpu time :  4569.3 secs   av.it.:   9.9
      thresh= 1.612E-07 alpha_mix =  0.700 |ddv_scf|^2 =  7.125E-13

      iter #   6 total cpu time :  4661.5 secs   av.it.:   9.7
      thresh= 8.441E-08 alpha_mix =  0.700 |ddv_scf|^2 =  1.060E-14

      iter #   7 total cpu time :  4754.3 secs   av.it.:   9.8
      thresh= 1.030E-08 alpha_mix =  0.700 |ddv_scf|^2 =  4.347E-15

     End of self-consistent calculation

     Convergence has been achieved 


     Representation #  6 mode #   6

     Self-consistent Calculation

      iter #   1 total cpu time :  4825.2 secs   av.it.:   6.6
      thresh= 1.000E-02 alpha_mix =  0.700 |ddv_scf|^2 =  1.288E-04

      iter #   2 total cpu time :  4913.4 secs   av.it.:   9.2
      thresh= 1.135E-03 alpha_mix =  0.700 |ddv_scf|^2 =  1.600E-04

      iter #   3 total cpu time :  4993.9 secs   av.it.:   8.0
      thresh= 1.265E-03 alpha_mix =  0.700 |ddv_scf|^2 =  5.404E-08

      iter #   4 total cpu time :  5083.0 secs   av.it.:   9.2
      thresh= 2.325E-05 alpha_mix =  0.700 |ddv_scf|^2 =  8.891E-10

      iter #   5 total cpu time :  5166.1 secs   av.it.:   8.5
      thresh= 2.982E-06 alpha_mix =  0.700 |ddv_scf|^2 =  3.701E-12

      iter #   6 total cpu time :  5250.8 secs   av.it.:   8.7
      thresh= 1.924E-07 alpha_mix =  0.700 |ddv_scf|^2 =  1.553E-14

      iter #   7 total cpu time :  5344.4 secs   av.it.:   9.8
      thresh= 1.246E-08 alpha_mix =  0.700 |ddv_scf|^2 =  1.089E-15

     End of self-consistent calculation

     Convergence has been achieved 


     Representation #  7 mode #   7

     Self-consistent Calculation

      iter #   1 total cpu time :  5410.0 secs   av.it.:   5.8
      thresh= 1.000E-02 alpha_mix =  0.700 |ddv_scf|^2 =  2.466E-06

      iter #   2 total cpu time :  5502.1 secs   av.it.:   9.6
      thresh= 1.570E-04 alpha_mix =  0.700 |ddv_scf|^2 =  3.511E-09

      iter #   3 total cpu time :  5594.9 secs   av.it.:   9.7
      thresh= 5.925E-06 alpha_mix =  0.700 |ddv_scf|^2 =  8.502E-11

      iter #   4 total cpu time :  5683.6 secs   av.it.:   9.1
      thresh= 9.221E-07 alpha_mix =  0.700 |ddv_scf|^2 =  4.386E-13

      iter #   5 total cpu time :  5771.1 secs   av.it.:   8.9
      thresh= 6.623E-08 alpha_mix =  0.700 |ddv_scf|^2 =  3.306E-15

     End of self-consistent calculation

     Convergence has been achieved 


     Representation #  8 mode #   8

     Self-consistent Calculation

      iter #   1 total cpu time :  5841.4 secs   av.it.:   5.9
      thresh= 1.000E-02 alpha_mix =  0.700 |ddv_scf|^2 =  2.466E-06

      iter #   2 total cpu time :  5934.1 secs   av.it.:   9.6
      thresh= 1.570E-04 alpha_mix =  0.700 |ddv_scf|^2 =  3.513E-09

      iter #   3 total cpu time :  6027.4 secs   av.it.:   9.8
      thresh= 5.927E-06 alpha_mix =  0.700 |ddv_scf|^2 =  8.616E-11

      iter #   4 total cpu time :  6118.5 secs   av.it.:   9.5
      thresh= 9.282E-07 alpha_mix =  0.700 |ddv_scf|^2 =  2.599E-12

      iter #   5 total cpu time :  6212.1 secs   av.it.:   9.9
      thresh= 1.612E-07 alpha_mix =  0.700 |ddv_scf|^2 =  7.126E-13

      iter #   6 total cpu time :  6304.1 secs   av.it.:   9.7
      thresh= 8.442E-08 alpha_mix =  0.700 |ddv_scf|^2 =  1.060E-14

      iter #   7 total cpu time :  6397.0 secs   av.it.:   9.8
      thresh= 1.029E-08 alpha_mix =  0.700 |ddv_scf|^2 =  4.347E-15

     End of self-consistent calculation

     Convergence has been achieved 


     Representation #  9 mode #   9

     Self-consistent Calculation

      iter #   1 total cpu time :  6468.0 secs   av.it.:   6.6
      thresh= 1.000E-02 alpha_mix =  0.700 |ddv_scf|^2 =  1.288E-04

      iter #   2 total cpu time :  6556.4 secs   av.it.:   9.2
      thresh= 1.135E-03 alpha_mix =  0.700 |ddv_scf|^2 =  1.600E-04

      iter #   3 total cpu time :  6636.9 secs   av.it.:   8.0
      thresh= 1.265E-03 alpha_mix =  0.700 |ddv_scf|^2 =  5.404E-08

      iter #   4 total cpu time :  6726.2 secs   av.it.:   9.2
      thresh= 2.325E-05 alpha_mix =  0.700 |ddv_scf|^2 =  8.891E-10

      iter #   5 total cpu time :  6810.3 secs   av.it.:   8.5
      thresh= 2.982E-06 alpha_mix =  0.700 |ddv_scf|^2 =  3.701E-12

      iter #   6 total cpu time :  6896.3 secs   av.it.:   8.7
      thresh= 1.924E-07 alpha_mix =  0.700 |ddv_scf|^2 =  1.552E-14

      iter #   7 total cpu time :  6991.8 secs   av.it.:   9.8
      thresh= 1.246E-08 alpha_mix =  0.700 |ddv_scf|^2 =  1.079E-15

     End of self-consistent calculation

     Convergence has been achieved 


     Representation # 10 mode #  10

     Self-consistent Calculation

      iter #   1 total cpu time :  7051.5 secs   av.it.:   5.0
      thresh= 1.000E-02 alpha_mix =  0.700 |ddv_scf|^2 =  1.364E-07

      iter #   2 total cpu time :  7146.0 secs   av.it.:   9.7
      thresh= 3.693E-05 alpha_mix =  0.700 |ddv_scf|^2 =  1.353E-09

      iter #   3 total cpu time :  7237.4 secs   av.it.:   9.2
      thresh= 3.679E-06 alpha_mix =  0.700 |ddv_scf|^2 =  4.511E-11

      iter #   4 total cpu time :  7324.9 secs   av.it.:   8.8
      thresh= 6.717E-07 alpha_mix =  0.700 |ddv_scf|^2 =  1.661E-12

      iter #   5 total cpu time :  7408.6 secs   av.it.:   8.2
      thresh= 1.289E-07 alpha_mix =  0.700 |ddv_scf|^2 =  1.142E-15

     End of self-consistent calculation

     Convergence has been achieved 


     Representation # 11 mode #  11

     Self-consistent Calculation

      iter #   1 total cpu time :  7468.3 secs   av.it.:   5.0
      thresh= 1.000E-02 alpha_mix =  0.700 |ddv_scf|^2 =  1.363E-07

      iter #   2 total cpu time :  7563.3 secs   av.it.:   9.7
      thresh= 3.692E-05 alpha_mix =  0.700 |ddv_scf|^2 =  1.361E-09

      iter #   3 total cpu time :  7655.5 secs   av.it.:   9.3
      thresh= 3.689E-06 alpha_mix =  0.700 |ddv_scf|^2 =  4.675E-11

      iter #   4 total cpu time :  7745.5 secs   av.it.:   9.2
      thresh= 6.837E-07 alpha_mix =  0.700 |ddv_scf|^2 =  3.694E-12

      iter #   5 total cpu time :  7840.0 secs   av.it.:   9.7
      thresh= 1.922E-07 alpha_mix =  0.700 |ddv_scf|^2 =  1.487E-12

      iter #   6 total cpu time :  7931.5 secs   av.it.:   9.3
      thresh= 1.219E-07 alpha_mix =  0.700 |ddv_scf|^2 =  1.918E-15

     End of self-consistent calculation

     Convergence has been achieved 


     Representation # 12 mode #  12

     Self-consistent Calculation

      iter #   1 total cpu time :  7996.6 secs   av.it.:   5.8
      thresh= 1.000E-02 alpha_mix =  0.700 |ddv_scf|^2 =  2.608E-05

      iter #   2 total cpu time :  8085.7 secs   av.it.:   9.0
      thresh= 5.107E-04 alpha_mix =  0.700 |ddv_scf|^2 =  3.189E-05

      iter #   3 total cpu time :  8167.8 secs   av.it.:   8.0
      thresh= 5.647E-04 alpha_mix =  0.700 |ddv_scf|^2 =  4.464E-09

      iter #   4 total cpu time :  8258.9 secs   av.it.:   9.3
      thresh= 6.681E-06 alpha_mix =  0.700 |ddv_scf|^2 =  3.938E-11

      iter #   5 total cpu time :  8347.5 secs   av.it.:   8.9
      thresh= 6.275E-07 alpha_mix =  0.700 |ddv_scf|^2 =  1.789E-12

      iter #   6 total cpu time :  8432.4 secs   av.it.:   8.5
      thresh= 1.338E-07 alpha_mix =  0.700 |ddv_scf|^2 =  2.973E-14

      iter #   7 total cpu time :  8519.1 secs   av.it.:   8.8
      thresh= 1.724E-08 alpha_mix =  0.700 |ddv_scf|^2 =  4.975E-16

     End of self-consistent calculation

     Convergence has been achieved 

     Number of q in the star =    1
     List of q in the star:
          1   0.000000000   0.000000000   0.000000000

          Dielectric constant in cartesian axis 

          (       4.988437690      -0.000000004      -0.000000002 )
          (      -0.000000004       4.988437684       0.000000003 )
          (      -0.000000002       0.000000002       2.892862098 )

          Effective charges (d Force / dE) in cartesian axis

           atom      1   B  
      Ex  (        2.69410       -0.00000       -0.00000 )
      Ey  (       -0.00000        2.69410        0.00000 )
      Ez  (       -0.00000        0.00000        0.78645 )
           atom      2   N  
      Ex  (       -2.65819        0.00000       -0.00000 )
      Ey  (        0.00000       -2.65819        0.00000 )
      Ez  (        0.00000       -0.00000       -0.75497 )
           atom      3   N  
      Ex  (       -2.65818       -0.00000        0.00000 )
      Ey  (       -0.00000       -2.65818       -0.00000 )
      Ez  (        0.00000       -0.00000       -0.75498 )
           atom      4   B  
      Ex  (        2.69410        0.00000        0.00000 )
      Ey  (        0.00000        2.69410       -0.00000 )
      Ez  (       -0.00000        0.00000        0.78644 )

          Effective charges (d P / du) in cartesian axis 

           atom      1   B  
      Px  (        2.69412       -0.00000       -0.00000 )
      Py  (       -0.00000        2.69411        0.00000 )
      Pz  (        0.00000       -0.00000        0.78644 )
           atom      2   N  
      Px  (       -2.65815        0.00000       -0.00000 )
      Py  (       -0.00000       -2.65826       -0.00000 )
      Pz  (        0.00000        0.00000       -0.75501 )
           atom      3   N  
      Px  (       -2.65814        0.00000       -0.00000 )
      Py  (        0.00000       -2.65826       -0.00000 )
      Pz  (        0.00000       -0.00000       -0.75501 )
           atom      4   B  
      Px  (        2.69412       -0.00000       -0.00000 )
      Py  (       -0.00000        2.69411        0.00000 )
      Pz  (       -0.00000        0.00000        0.78644 )

     Diagonalizing the dynamical matrix

     q = (    0.000000000   0.000000000   0.000000000 ) 

 **************************************************************************
     freq (    1) =       1.155250 [THz] =      38.534997 [cm-1]
     freq (    2) =       1.192616 [THz] =      39.781374 [cm-1]
     freq (    3) =       1.361975 [THz] =      45.430605 [cm-1]
     freq (    4) =       2.051429 [THz] =      68.428301 [cm-1]
     freq (    5) =       2.071370 [THz] =      69.093454 [cm-1]
     freq (    6) =       4.735945 [THz] =     157.974105 [cm-1]
     freq (    7) =      22.408278 [THz] =     747.459710 [cm-1]
     freq (    8) =      24.237569 [THz] =     808.478267 [cm-1]
     freq (    9) =      42.066839 [THz] =    1403.198710 [cm-1]
     freq (   10) =      42.067419 [THz] =    1403.218066 [cm-1]
     freq (   11) =      42.077016 [THz] =    1403.538182 [cm-1]
     freq (   12) =      42.077518 [THz] =    1403.554910 [cm-1]
 **************************************************************************

     Mode symmetry, C_1 (1)     point group:

     freq (  1 -  1) =         38.5  [cm-1]   --> A               I+R
     freq (  2 -  2) =         39.8  [cm-1]   --> A               I+R
     freq (  3 -  3) =         45.4  [cm-1]   --> A               I+R
     freq (  4 -  4) =         68.4  [cm-1]   --> A               I+R
     freq (  5 -  5) =         69.1  [cm-1]   --> A               I+R
     freq (  6 -  6) =        158.0  [cm-1]   --> A               I+R
     freq (  7 -  7) =        747.5  [cm-1]   --> A               I+R
     freq (  8 -  8) =        808.5  [cm-1]   --> A               I+R
     freq (  9 -  9) =       1403.2  [cm-1]   --> A               I+R
     freq ( 10 - 10) =       1403.2  [cm-1]   --> A               I+R
     freq ( 11 - 11) =       1403.5  [cm-1]   --> A               I+R
     freq ( 12 - 12) =       1403.6  [cm-1]   --> A               I+R

     Calculation of q =    0.0000000   0.0000000  -0.1923077

   Info: using nr1, nr2, nr3 values from input

   Info: using nr1, nr2, nr3 values from input

     G-vector sticks info
     --------------------
     sticks:   dense  smooth     PW     G-vecs:    dense   smooth      PW
     Sum         313     313    109                11359    11359    2445



     bravais-lattice index     =            4
     lattice parameter (alat)  =       4.7243  a.u.
     unit-cell volume          =     237.4218 (a.u.)^3
     number of atoms/cell      =            4
     number of atomic types    =            2
     number of electrons       =        16.00
     number of Kohn-Sham states=            8
     kinetic-energy cutoff     =      50.0000  Ry
     charge density cutoff     =     200.0000  Ry
     Exchange-correlation      =  SLA  PZ   NOGX NOGC ( 1  1  0  0 0 0)

     celldm(1)=   4.724315  celldm(2)=   0.000000  celldm(3)=   2.600000
     celldm(4)=   0.000000  celldm(5)=   0.000000  celldm(6)=   0.000000

     crystal axes: (cart. coord. in units of alat)
               a(1) = (   1.000000   0.000000   0.000000 )  
               a(2) = (  -0.500000   0.866025   0.000000 )  
               a(3) = (   0.000000   0.000000   2.600000 )  

     reciprocal axes: (cart. coord. in units 2 pi/alat)
               b(1) = (  1.000000  0.577350 -0.000000 )  
               b(2) = (  0.000000  1.154701  0.000000 )  
               b(3) = (  0.000000 -0.000000  0.384615 )  


     PseudoPot. # 1 for B  read from file:
     /home/claudio/SOFTWARE/PSEUDO_PWSCF/B.pz-vbc.UPF
     MD5 check sum: b59596b5d63edeea6a2b3a0beace49c5
     Pseudo is Norm-conserving, Zval =  3.0
     Generated by new atomic code, or converted to UPF format
     Using radial grid of  157 points,  1 beta functions with: 
                l(1) =   0

     PseudoPot. # 2 for N  read from file:
     /home/claudio/SOFTWARE/PSEUDO_PWSCF/N.pz-vbc.UPF
     MD5 check sum: f7a51f6f78412844d17f6e69b370b417
     Pseudo is Norm-conserving, Zval =  5.0
     Generated by new atomic code, or converted to UPF format
     Using radial grid of  161 points,  1 beta functions with: 
                l(1) =   0

     atomic species   valence    mass     pseudopotential
        B              3.00    10.81100     B ( 1.00)
        N              5.00    14.00600     N ( 1.00)

     No symmetry found



   Cartesian axes

     site n.     atom                  positions (alat units)
         1           B   tau(   1) = (   0.5000000   0.2886751  -0.6500000  )
         2           N   tau(   2) = (  -0.5000000  -0.2886751  -0.6500000  )
         3           N   tau(   3) = (   0.5000000   0.2886751   0.6500000  )
         4           B   tau(   4) = (  -0.5000000  -0.2886751   0.6500000  )

     number of k points=  1152

     Number of k-points >= 100: set verbosity='high' to print them.

     Dense  grid:    11359 G-vectors     FFT dimensions: (  24,  24,  60)

     Estimated max dynamical RAM per process >       4.87MB

     The potential is recalculated from file :
     ./_ph0/bn.save/charge-density.dat

     Starting wfc are   16 atomic wfcs

     Band Structure Calculation
     Davidson diagonalization with overlap

     ethr =  6.25E-11,  avg # of iterations = 13.0

     total cpu time spent up to now is      234.9 secs

     End of band structure calculation

     Number of k-points >= 100: set verbosity='high' to print the bands.

     highest occupied level (ev):     4.8384

     Writing output data file bn.save

                                                                                

     bravais-lattice index     =            4
     lattice parameter (alat)  =       4.7243  a.u.
     unit-cell volume          =     237.4218 (a.u.)^3
     number of atoms/cell      =            4
     number of atomic types    =            2
     kinetic-energy cut-off    =      50.0000  Ry
     charge density cut-off    =     200.0000  Ry
     convergence threshold     =      1.0E-14
     beta                      =       0.7000
     number of iterations used =            4
     Exchange-correlation      =  SLA  PZ   NOGX NOGC ( 1  1  0  0 0 0)


     celldm(1)=    4.72432  celldm(2)=    0.00000  celldm(3)=    2.60000
     celldm(4)=    0.00000  celldm(5)=    0.00000  celldm(6)=    0.00000

     crystal axes: (cart. coord. in units of alat)
               a(1) = (  1.0000  0.0000  0.0000 )  
               a(2) = ( -0.5000  0.8660  0.0000 )  
               a(3) = (  0.0000  0.0000  2.6000 )  

     reciprocal axes: (cart. coord. in units 2 pi/alat)
               b(1) = (  1.0000  0.5774 -0.0000 )  
               b(2) = (  0.0000  1.1547  0.0000 )  
               b(3) = (  0.0000 -0.0000  0.3846 )  


     Atoms inside the unit cell: 

     Cartesian axes

     site n.  atom      mass           positions (alat units)
        1     B   10.8110   tau(    1) = (    0.50000    0.28868   -0.65000  )
        2     N   14.0060   tau(    2) = (   -0.50000   -0.28868   -0.65000  )
        3     N   14.0060   tau(    3) = (    0.50000    0.28868    0.65000  )
        4     B   10.8110   tau(    4) = (   -0.50000   -0.28868    0.65000  )

     Computing dynamical matrix for 
                    q = (   0.0000000   0.0000000  -0.1923077 )

     No symmetry!

     G cutoff =  113.0702  (  11359 G-vectors)     FFT grid: ( 24, 24, 60)
     number of k points=  1152

     PseudoPot. # 1 for B  read from file:
     /home/claudio/SOFTWARE/PSEUDO_PWSCF/B.pz-vbc.UPF
     MD5 check sum: b59596b5d63edeea6a2b3a0beace49c5
     Pseudo is Norm-conserving, Zval =  3.0
     Generated by new atomic code, or converted to UPF format
     Using radial grid of  157 points,  1 beta functions with: 
                l(1) =   0

     PseudoPot. # 2 for N  read from file:
     /home/claudio/SOFTWARE/PSEUDO_PWSCF/N.pz-vbc.UPF
     MD5 check sum: f7a51f6f78412844d17f6e69b370b417
     Pseudo is Norm-conserving, Zval =  5.0
     Generated by new atomic code, or converted to UPF format
     Using radial grid of  161 points,  1 beta functions with: 
                l(1) =   0

     Mode symmetry, C_1 (1)     point group:


     Atomic displacements:
     There are  12 irreducible representations

     Representation     1      1 modes -A  To be done

     Representation     2      1 modes -A  To be done

     Representation     3      1 modes -A  To be done

     Representation     4      1 modes -A  To be done

     Representation     5      1 modes -A  To be done

     Representation     6      1 modes -A  To be done

     Representation     7      1 modes -A  To be done

     Representation     8      1 modes -A  To be done

     Representation     9      1 modes -A  To be done

     Representation    10      1 modes -A  To be done

     Representation    11      1 modes -A  To be done

     Representation    12      1 modes -A  To be done



     Alpha used in Ewald sum =   2.0000
     PHONON       :     2h24m CPU        2h25m WALL



     Representation #  1 mode #   1

     Self-consistent Calculation

      iter #   1 total cpu time :  8818.0 secs   av.it.:   5.1
      thresh= 1.000E-02 alpha_mix =  0.700 |ddv_scf|^2 =  1.364E-07

      iter #   2 total cpu time :  8913.1 secs   av.it.:   9.7
      thresh= 3.693E-05 alpha_mix =  0.700 |ddv_scf|^2 =  1.354E-09

      iter #   3 total cpu time :  9005.3 secs   av.it.:   9.4
      thresh= 3.680E-06 alpha_mix =  0.700 |ddv_scf|^2 =  4.511E-11

      iter #   4 total cpu time :  9094.0 secs   av.it.:   8.9
      thresh= 6.716E-07 alpha_mix =  0.700 |ddv_scf|^2 =  1.720E-12

      iter #   5 total cpu time :  9182.2 secs   av.it.:   8.8
      thresh= 1.311E-07 alpha_mix =  0.700 |ddv_scf|^2 =  2.409E-13

      iter #   6 total cpu time :  9260.6 secs   av.it.:   7.6
      thresh= 4.908E-08 alpha_mix =  0.700 |ddv_scf|^2 =  9.152E-17

     End of self-consistent calculation

     Convergence has been achieved 


     Representation #  2 mode #   2

     Self-consistent Calculation

      iter #   1 total cpu time :  9320.7 secs   av.it.:   5.1
      thresh= 1.000E-02 alpha_mix =  0.700 |ddv_scf|^2 =  1.363E-07

      iter #   2 total cpu time :  9415.8 secs   av.it.:   9.8
      thresh= 3.692E-05 alpha_mix =  0.700 |ddv_scf|^2 =  1.447E-09

      iter #   3 total cpu time :  9509.2 secs   av.it.:   9.6
      thresh= 3.804E-06 alpha_mix =  0.700 |ddv_scf|^2 =  1.918E-10

      iter #   4 total cpu time :  9598.8 secs   av.it.:   9.1
      thresh= 1.385E-06 alpha_mix =  0.700 |ddv_scf|^2 =  1.633E-10

      iter #   5 total cpu time :  9680.9 secs   av.it.:   8.1
      thresh= 1.278E-06 alpha_mix =  0.700 |ddv_scf|^2 =  1.104E-12

      iter #   6 total cpu time :  9773.6 secs   av.it.:   9.5
      thresh= 1.051E-07 alpha_mix =  0.700 |ddv_scf|^2 =  6.662E-14

      iter #   7 total cpu time :  9870.0 secs   av.it.:   9.9
      thresh= 2.581E-08 alpha_mix =  0.700 |ddv_scf|^2 =  3.237E-15

     End of self-consistent calculation

     Convergence has been achieved 


     Representation #  3 mode #   3

     Self-consistent Calculation

      iter #   1 total cpu time :  9935.4 secs   av.it.:   5.7
      thresh= 1.000E-02 alpha_mix =  0.700 |ddv_scf|^2 =  2.052E-04

      iter #   2 total cpu time : 10019.4 secs   av.it.:   8.4
      thresh= 1.433E-03 alpha_mix =  0.700 |ddv_scf|^2 =  3.878E-04

      iter #   3 total cpu time : 10095.4 secs   av.it.:   7.4
      thresh= 1.969E-03 alpha_mix =  0.700 |ddv_scf|^2 =  1.312E-07

      iter #   4 total cpu time : 10183.3 secs   av.it.:   8.9
      thresh= 3.622E-05 alpha_mix =  0.700 |ddv_scf|^2 =  6.039E-09

      iter #   5 total cpu time : 10272.1 secs   av.it.:   8.9
      thresh= 7.771E-06 alpha_mix =  0.700 |ddv_scf|^2 =  5.186E-11

      iter #   6 total cpu time : 10357.7 secs   av.it.:   8.6
      thresh= 7.202E-07 alpha_mix =  0.700 |ddv_scf|^2 =  3.294E-13

      iter #   7 total cpu time : 10452.7 secs   av.it.:   9.8
      thresh= 5.739E-08 alpha_mix =  0.700 |ddv_scf|^2 =  3.707E-13

      iter #   8 total cpu time : 10534.5 secs   av.it.:   8.0
      thresh= 6.088E-08 alpha_mix =  0.700 |ddv_scf|^2 =  1.413E-14

      iter #   9 total cpu time : 10621.6 secs   av.it.:   8.8
      thresh= 1.189E-08 alpha_mix =  0.700 |ddv_scf|^2 =  1.371E-14

      iter #  10 total cpu time : 10702.1 secs   av.it.:   8.0
      thresh= 1.171E-08 alpha_mix =  0.700 |ddv_scf|^2 =  4.505E-17

     End of self-consistent calculation

     Convergence has been achieved 


     Representation #  4 mode #   4

     Self-consistent Calculation

      iter #   1 total cpu time : 10769.3 secs   av.it.:   5.9
      thresh= 1.000E-02 alpha_mix =  0.700 |ddv_scf|^2 =  2.466E-06

      iter #   2 total cpu time : 10864.4 secs   av.it.:   9.8
      thresh= 1.570E-04 alpha_mix =  0.700 |ddv_scf|^2 =  3.511E-09

      iter #   3 total cpu time : 10959.8 secs   av.it.:   9.8
      thresh= 5.926E-06 alpha_mix =  0.700 |ddv_scf|^2 =  8.505E-11

      iter #   4 total cpu time : 11051.2 secs   av.it.:   9.3
      thresh= 9.222E-07 alpha_mix =  0.700 |ddv_scf|^2 =  4.809E-13

      iter #   5 total cpu time : 11144.1 secs   av.it.:   9.5
      thresh= 6.935E-08 alpha_mix =  0.700 |ddv_scf|^2 =  1.361E-13

      iter #   6 total cpu time : 11227.2 secs   av.it.:   8.1
      thresh= 3.689E-08 alpha_mix =  0.700 |ddv_scf|^2 =  3.305E-15

     End of self-consistent calculation

     Convergence has been achieved 


     Representation #  5 mode #   5

     Self-consistent Calculation

      iter #   1 total cpu time : 11294.9 secs   av.it.:   5.9
      thresh= 1.000E-02 alpha_mix =  0.700 |ddv_scf|^2 =  2.466E-06

      iter #   2 total cpu time : 11390.7 secs   av.it.:   9.8
      thresh= 1.570E-04 alpha_mix =  0.700 |ddv_scf|^2 =  3.746E-09

      iter #   3 total cpu time : 11486.8 secs   av.it.:   9.9
      thresh= 6.121E-06 alpha_mix =  0.700 |ddv_scf|^2 =  3.482E-10

      iter #   4 total cpu time : 11575.9 secs   av.it.:   9.0
      thresh= 1.866E-06 alpha_mix =  0.700 |ddv_scf|^2 =  2.144E-10

      iter #   5 total cpu time : 11661.9 secs   av.it.:   8.7
      thresh= 1.464E-06 alpha_mix =  0.700 |ddv_scf|^2 =  8.183E-13

      iter #   6 total cpu time : 11750.9 secs   av.it.:   9.0
      thresh= 9.046E-08 alpha_mix =  0.700 |ddv_scf|^2 =  1.897E-14

      iter #   7 total cpu time : 11841.9 secs   av.it.:   9.2
      thresh= 1.377E-08 alpha_mix =  0.700 |ddv_scf|^2 =  3.369E-16

     End of self-consistent calculation

     Convergence has been achieved 


     Representation #  6 mode #   6

     Self-consistent Calculation

      iter #   1 total cpu time : 11915.4 secs   av.it.:   6.8
      thresh= 1.000E-02 alpha_mix =  0.700 |ddv_scf|^2 =  8.983E-04

      iter #   2 total cpu time : 12000.5 secs   av.it.:   8.5
      thresh= 2.997E-03 alpha_mix =  0.700 |ddv_scf|^2 =  1.818E-03

      iter #   3 total cpu time : 12076.2 secs   av.it.:   7.2
      thresh= 4.264E-03 alpha_mix =  0.700 |ddv_scf|^2 =  2.334E-06

      iter #   4 total cpu time : 12161.1 secs   av.it.:   8.6
      thresh= 1.528E-04 alpha_mix =  0.700 |ddv_scf|^2 =  3.276E-08

      iter #   5 total cpu time : 12249.5 secs   av.it.:   8.9
      thresh= 1.810E-05 alpha_mix =  0.700 |ddv_scf|^2 =  3.292E-10

      iter #   6 total cpu time : 12338.7 secs   av.it.:   9.0
      thresh= 1.814E-06 alpha_mix =  0.700 |ddv_scf|^2 =  4.679E-12

      iter #   7 total cpu time : 12426.3 secs   av.it.:   8.8
      thresh= 2.163E-07 alpha_mix =  0.700 |ddv_scf|^2 =  8.774E-14

      iter #   8 total cpu time : 12508.8 secs   av.it.:   8.1
      thresh= 2.962E-08 alpha_mix =  0.700 |ddv_scf|^2 =  2.497E-14

      iter #   9 total cpu time : 12589.5 secs   av.it.:   7.9
      thresh= 1.580E-08 alpha_mix =  0.700 |ddv_scf|^2 =  1.352E-15

     End of self-consistent calculation

     Convergence has been achieved 


     Representation #  7 mode #   7

     Self-consistent Calculation

      iter #   1 total cpu time : 12656.5 secs   av.it.:   5.9
      thresh= 1.000E-02 alpha_mix =  0.700 |ddv_scf|^2 =  2.466E-06

      iter #   2 total cpu time : 12751.5 secs   av.it.:   9.8
      thresh= 1.570E-04 alpha_mix =  0.700 |ddv_scf|^2 =  3.510E-09

      iter #   3 total cpu time : 12846.7 secs   av.it.:   9.8
      thresh= 5.924E-06 alpha_mix =  0.700 |ddv_scf|^2 =  8.506E-11

      iter #   4 total cpu time : 12938.0 secs   av.it.:   9.3
      thresh= 9.223E-07 alpha_mix =  0.700 |ddv_scf|^2 =  6.125E-13

      iter #   5 total cpu time : 13031.0 secs   av.it.:   9.5
      thresh= 7.826E-08 alpha_mix =  0.700 |ddv_scf|^2 =  4.937E-13

      iter #   6 total cpu time : 13112.4 secs   av.it.:   8.0
      thresh= 7.027E-08 alpha_mix =  0.700 |ddv_scf|^2 =  2.006E-15

     End of self-consistent calculation

     Convergence has been achieved 


     Representation #  8 mode #   8

     Self-consistent Calculation

      iter #   1 total cpu time : 13179.9 secs   av.it.:   5.9
      thresh= 1.000E-02 alpha_mix =  0.700 |ddv_scf|^2 =  2.466E-06

      iter #   2 total cpu time : 13275.4 secs   av.it.:   9.8
      thresh= 1.570E-04 alpha_mix =  0.700 |ddv_scf|^2 =  3.807E-09

      iter #   3 total cpu time : 13371.7 secs   av.it.:   9.9
      thresh= 6.170E-06 alpha_mix =  0.700 |ddv_scf|^2 =  4.191E-10

      iter #   4 total cpu time : 13460.0 secs   av.it.:   8.9
      thresh= 2.047E-06 alpha_mix =  0.700 |ddv_scf|^2 =  2.120E-10

      iter #   5 total cpu time : 13546.6 secs   av.it.:   8.8
      thresh= 1.456E-06 alpha_mix =  0.700 |ddv_scf|^2 =  9.066E-13

      iter #   6 total cpu time : 13635.7 secs   av.it.:   9.0
      thresh= 9.522E-08 alpha_mix =  0.700 |ddv_scf|^2 =  2.186E-14

      iter #   7 total cpu time : 13729.1 secs   av.it.:   9.6
      thresh= 1.479E-08 alpha_mix =  0.700 |ddv_scf|^2 =  1.086E-15

     End of self-consistent calculation

     Convergence has been achieved 


     Representation #  9 mode #   9

     Self-consistent Calculation

      iter #   1 total cpu time : 13802.8 secs   av.it.:   6.8
      thresh= 1.000E-02 alpha_mix =  0.700 |ddv_scf|^2 =  8.983E-04

      iter #   2 total cpu time : 13888.2 secs   av.it.:   8.5
      thresh= 2.997E-03 alpha_mix =  0.700 |ddv_scf|^2 =  1.818E-03

      iter #   3 total cpu time : 13964.3 secs   av.it.:   7.2
      thresh= 4.264E-03 alpha_mix =  0.700 |ddv_scf|^2 =  2.334E-06

      iter #   4 total cpu time : 14049.6 secs   av.it.:   8.5
      thresh= 1.528E-04 alpha_mix =  0.700 |ddv_scf|^2 =  3.269E-08

      iter #   5 total cpu time : 14138.6 secs   av.it.:   8.9
      thresh= 1.808E-05 alpha_mix =  0.700 |ddv_scf|^2 =  3.306E-10

      iter #   6 total cpu time : 14228.2 secs   av.it.:   9.0
      thresh= 1.818E-06 alpha_mix =  0.700 |ddv_scf|^2 =  4.718E-12

      iter #   7 total cpu time : 14316.3 secs   av.it.:   8.8
      thresh= 2.172E-07 alpha_mix =  0.700 |ddv_scf|^2 =  1.535E-13

      iter #   8 total cpu time : 14397.4 secs   av.it.:   7.9
      thresh= 3.918E-08 alpha_mix =  0.700 |ddv_scf|^2 =  2.701E-14

      iter #   9 total cpu time : 14478.5 secs   av.it.:   8.0
      thresh= 1.643E-08 alpha_mix =  0.700 |ddv_scf|^2 =  1.407E-15

     End of self-consistent calculation

     Convergence has been achieved 


     Representation # 10 mode #  10

     Self-consistent Calculation

      iter #   1 total cpu time : 14538.7 secs   av.it.:   5.1
      thresh= 1.000E-02 alpha_mix =  0.700 |ddv_scf|^2 =  1.364E-07

      iter #   2 total cpu time : 14633.7 secs   av.it.:   9.7
      thresh= 3.693E-05 alpha_mix =  0.700 |ddv_scf|^2 =  1.356E-09

      iter #   3 total cpu time : 14725.8 secs   av.it.:   9.4
      thresh= 3.682E-06 alpha_mix =  0.700 |ddv_scf|^2 =  4.509E-11

      iter #   4 total cpu time : 14814.2 secs   av.it.:   8.9
      thresh= 6.715E-07 alpha_mix =  0.700 |ddv_scf|^2 =  1.675E-12

      iter #   5 total cpu time : 14900.7 secs   av.it.:   8.7
      thresh= 1.294E-07 alpha_mix =  0.700 |ddv_scf|^2 =  5.636E-14

      iter #   6 total cpu time : 14980.7 secs   av.it.:   7.8
      thresh= 2.374E-08 alpha_mix =  0.700 |ddv_scf|^2 =  1.053E-16

     End of self-consistent calculation

     Convergence has been achieved 


     Representation # 11 mode #  11

     Self-consistent Calculation

      iter #   1 total cpu time : 15041.0 secs   av.it.:   5.1
      thresh= 1.000E-02 alpha_mix =  0.700 |ddv_scf|^2 =  1.363E-07

      iter #   2 total cpu time : 15136.7 secs   av.it.:   9.8
      thresh= 3.692E-05 alpha_mix =  0.700 |ddv_scf|^2 =  1.452E-09

      iter #   3 total cpu time : 15230.6 secs   av.it.:   9.7
      thresh= 3.811E-06 alpha_mix =  0.700 |ddv_scf|^2 =  1.979E-10

      iter #   4 total cpu time : 15320.5 secs   av.it.:   9.1
      thresh= 1.407E-06 alpha_mix =  0.700 |ddv_scf|^2 =  1.652E-10

      iter #   5 total cpu time : 15402.9 secs   av.it.:   8.1
      thresh= 1.285E-06 alpha_mix =  0.700 |ddv_scf|^2 =  1.104E-12

      iter #   6 total cpu time : 15496.2 secs   av.it.:   9.5
      thresh= 1.051E-07 alpha_mix =  0.700 |ddv_scf|^2 =  7.015E-14

      iter #   7 total cpu time : 15592.8 secs   av.it.:   9.9
      thresh= 2.649E-08 alpha_mix =  0.700 |ddv_scf|^2 =  3.203E-15

     End of self-consistent calculation

     Convergence has been achieved 


     Representation # 12 mode #  12

     Self-consistent Calculation

      iter #   1 total cpu time : 15658.4 secs   av.it.:   5.7
      thresh= 1.000E-02 alpha_mix =  0.700 |ddv_scf|^2 =  2.052E-04

      iter #   2 total cpu time : 15742.7 secs   av.it.:   8.4
      thresh= 1.433E-03 alpha_mix =  0.700 |ddv_scf|^2 =  3.878E-04

      iter #   3 total cpu time : 15818.9 secs   av.it.:   7.4
      thresh= 1.969E-03 alpha_mix =  0.700 |ddv_scf|^2 =  1.313E-07

      iter #   4 total cpu time : 15907.1 secs   av.it.:   8.9
      thresh= 3.624E-05 alpha_mix =  0.700 |ddv_scf|^2 =  6.016E-09

      iter #   5 total cpu time : 15997.2 secs   av.it.:   8.9
      thresh= 7.757E-06 alpha_mix =  0.700 |ddv_scf|^2 =  5.094E-11

      iter #   6 total cpu time : 16084.1 secs   av.it.:   8.6
      thresh= 7.137E-07 alpha_mix =  0.700 |ddv_scf|^2 =  3.390E-13

      iter #   7 total cpu time : 16180.4 secs   av.it.:   9.8
      thresh= 5.823E-08 alpha_mix =  0.700 |ddv_scf|^2 =  3.673E-13

      iter #   8 total cpu time : 16264.1 secs   av.it.:   8.1
      thresh= 6.061E-08 alpha_mix =  0.700 |ddv_scf|^2 =  6.224E-17

     End of self-consistent calculation

     Convergence has been achieved 

     Number of q in the star =    1
     List of q in the star:
          1   0.000000000   0.000000000  -0.192307692

     Diagonalizing the dynamical matrix

     q = (    0.000000000   0.000000000  -0.192307692 ) 

 **************************************************************************
     freq (    1) =       1.649017 [THz] =      55.005285 [cm-1]
     freq (    2) =       1.649439 [THz] =      55.019368 [cm-1]
     freq (    3) =       1.661937 [THz] =      55.436242 [cm-1]
     freq (    4) =       1.662439 [THz] =      55.452981 [cm-1]
     freq (    5) =       3.423398 [THz] =     114.192270 [cm-1]
     freq (    6) =       3.424371 [THz] =     114.224730 [cm-1]
     freq (    7) =      24.258345 [THz] =     809.171301 [cm-1]
     freq (    8) =      24.258368 [THz] =     809.172058 [cm-1]
     freq (    9) =      42.071534 [THz] =    1403.355310 [cm-1]
     freq (   10) =      42.071552 [THz] =    1403.355932 [cm-1]
     freq (   11) =      42.071914 [THz] =    1403.367976 [cm-1]
     freq (   12) =      42.071928 [THz] =    1403.368472 [cm-1]
 **************************************************************************

     Mode symmetry, C_1 (1)     point group:

     freq (  1 -  1) =         55.0  [cm-1]   --> A                  
     freq (  2 -  2) =         55.0  [cm-1]   --> A                  
     freq (  3 -  3) =         55.4  [cm-1]   --> A                  
     freq (  4 -  4) =         55.5  [cm-1]   --> A                  
     freq (  5 -  5) =        114.2  [cm-1]   --> A                  
     freq (  6 -  6) =        114.2  [cm-1]   --> A                  
     freq (  7 -  7) =        809.2  [cm-1]   --> A                  
     freq (  8 -  8) =        809.2  [cm-1]   --> A                  
     freq (  9 -  9) =       1403.4  [cm-1]   --> A                  
     freq ( 10 - 10) =       1403.4  [cm-1]   --> A                  
     freq ( 11 - 11) =       1403.4  [cm-1]   --> A                  
     freq ( 12 - 12) =       1403.4  [cm-1]   --> A                  

     Calculation of q =    0.0000000  -0.5773503   0.0000000

   Info: using nr1, nr2, nr3 values from input

   Info: using nr1, nr2, nr3 values from input

     G-vector sticks info
     --------------------
     sticks:   dense  smooth     PW     G-vecs:    dense   smooth      PW
     Sum         313     313    121                11359    11359    3047



     bravais-lattice index     =            4
     lattice parameter (alat)  =       4.7243  a.u.
     unit-cell volume          =     237.4218 (a.u.)^3
     number of atoms/cell      =            4
     number of atomic types    =            2
     number of electrons       =        16.00
     number of Kohn-Sham states=            8
     kinetic-energy cutoff     =      50.0000  Ry
     charge density cutoff     =     200.0000  Ry
     Exchange-correlation      =  SLA  PZ   NOGX NOGC ( 1  1  0  0 0 0)

     celldm(1)=   4.724315  celldm(2)=   0.000000  celldm(3)=   2.600000
     celldm(4)=   0.000000  celldm(5)=   0.000000  celldm(6)=   0.000000

     crystal axes: (cart. coord. in units of alat)
               a(1) = (   1.000000   0.000000   0.000000 )  
               a(2) = (  -0.500000   0.866025   0.000000 )  
               a(3) = (   0.000000   0.000000   2.600000 )  

     reciprocal axes: (cart. coord. in units 2 pi/alat)
               b(1) = (  1.000000  0.577350 -0.000000 )  
               b(2) = (  0.000000  1.154701  0.000000 )  
               b(3) = (  0.000000 -0.000000  0.384615 )  


     PseudoPot. # 1 for B  read from file:
     /home/claudio/SOFTWARE/PSEUDO_PWSCF/B.pz-vbc.UPF
     MD5 check sum: b59596b5d63edeea6a2b3a0beace49c5
     Pseudo is Norm-conserving, Zval =  3.0
     Generated by new atomic code, or converted to UPF format
     Using radial grid of  157 points,  1 beta functions with: 
                l(1) =   0

     PseudoPot. # 2 for N  read from file:
     /home/claudio/SOFTWARE/PSEUDO_PWSCF/N.pz-vbc.UPF
     MD5 check sum: f7a51f6f78412844d17f6e69b370b417
     Pseudo is Norm-conserving, Zval =  5.0
     Generated by new atomic code, or converted to UPF format
     Using radial grid of  161 points,  1 beta functions with: 
                l(1) =   0

     atomic species   valence    mass     pseudopotential
        B              3.00    10.81100     B ( 1.00)
        N              5.00    14.00600     N ( 1.00)

     No symmetry found



   Cartesian axes

     site n.     atom                  positions (alat units)
         1           B   tau(   1) = (   0.5000000   0.2886751  -0.6500000  )
         2           N   tau(   2) = (  -0.5000000  -0.2886751  -0.6500000  )
         3           N   tau(   3) = (   0.5000000   0.2886751   0.6500000  )
         4           B   tau(   4) = (  -0.5000000  -0.2886751   0.6500000  )

     number of k points=  1152

     Number of k-points >= 100: set verbosity='high' to print them.

     Dense  grid:    11359 G-vectors     FFT dimensions: (  24,  24,  60)

     Estimated max dynamical RAM per process >       4.87MB

     The potential is recalculated from file :
     ./_ph0/bn.save/charge-density.dat

     Starting wfc are   16 atomic wfcs

     Band Structure Calculation
     Davidson diagonalization with overlap

     ethr =  6.25E-11,  avg # of iterations = 13.0

     total cpu time spent up to now is      476.5 secs

     End of band structure calculation

     Number of k-points >= 100: set verbosity='high' to print the bands.

     highest occupied level (ev):     4.8384

     Writing output data file bn.save

                                                                                

     bravais-lattice index     =            4
     lattice parameter (alat)  =       4.7243  a.u.
     unit-cell volume          =     237.4218 (a.u.)^3
     number of atoms/cell      =            4
     number of atomic types    =            2
     kinetic-energy cut-off    =      50.0000  Ry
     charge density cut-off    =     200.0000  Ry
     convergence threshold     =      1.0E-14
     beta                      =       0.7000
     number of iterations used =            4
     Exchange-correlation      =  SLA  PZ   NOGX NOGC ( 1  1  0  0 0 0)


     celldm(1)=    4.72432  celldm(2)=    0.00000  celldm(3)=    2.60000
     celldm(4)=    0.00000  celldm(5)=    0.00000  celldm(6)=    0.00000

     crystal axes: (cart. coord. in units of alat)
               a(1) = (  1.0000  0.0000  0.0000 )  
               a(2) = ( -0.5000  0.8660  0.0000 )  
               a(3) = (  0.0000  0.0000  2.6000 )  

     reciprocal axes: (cart. coord. in units 2 pi/alat)
               b(1) = (  1.0000  0.5774 -0.0000 )  
               b(2) = (  0.0000  1.1547  0.0000 )  
               b(3) = (  0.0000 -0.0000  0.3846 )  


     Atoms inside the unit cell: 

     Cartesian axes

     site n.  atom      mass           positions (alat units)
        1     B   10.8110   tau(    1) = (    0.50000    0.28868   -0.65000  )
        2     N   14.0060   tau(    2) = (   -0.50000   -0.28868   -0.65000  )
        3     N   14.0060   tau(    3) = (    0.50000    0.28868    0.65000  )
        4     B   10.8110   tau(    4) = (   -0.50000   -0.28868    0.65000  )

     Computing dynamical matrix for 
                    q = (   0.0000000  -0.5773503   0.0000000 )

     No symmetry!

     G cutoff =  113.0702  (  11359 G-vectors)     FFT grid: ( 24, 24, 60)
     number of k points=  1152

     PseudoPot. # 1 for B  read from file:
     /home/claudio/SOFTWARE/PSEUDO_PWSCF/B.pz-vbc.UPF
     MD5 check sum: b59596b5d63edeea6a2b3a0beace49c5
     Pseudo is Norm-conserving, Zval =  3.0
     Generated by new atomic code, or converted to UPF format
     Using radial grid of  157 points,  1 beta functions with: 
                l(1) =   0

     PseudoPot. # 2 for N  read from file:
     /home/claudio/SOFTWARE/PSEUDO_PWSCF/N.pz-vbc.UPF
     MD5 check sum: f7a51f6f78412844d17f6e69b370b417
     Pseudo is Norm-conserving, Zval =  5.0
     Generated by new atomic code, or converted to UPF format
     Using radial grid of  161 points,  1 beta functions with: 
                l(1) =   0

     Mode symmetry, C_1 (1)     point group:


     Atomic displacements:
     There are  12 irreducible representations

     Representation     1      1 modes -A  To be done

     Representation     2      1 modes -A  To be done

     Representation     3      1 modes -A  To be done

     Representation     4      1 modes -A  To be done

     Representation     5      1 modes -A  To be done

     Representation     6      1 modes -A  To be done

     Representation     7      1 modes -A  To be done

     Representation     8      1 modes -A  To be done

     Representation     9      1 modes -A  To be done

     Representation    10      1 modes -A  To be done

     Representation    11      1 modes -A  To be done

     Representation    12      1 modes -A  To be done



     Alpha used in Ewald sum =   2.0000
     PHONON       :     4h33m CPU        4h35m WALL



     Representation #  1 mode #   1

     Self-consistent Calculation

      iter #   1 total cpu time : 16569.2 secs   av.it.:   5.5
      thresh= 1.000E-02 alpha_mix =  0.700 |ddv_scf|^2 =  3.602E-07

      iter #   2 total cpu time : 16664.6 secs   av.it.:   9.6
      thresh= 6.002E-05 alpha_mix =  0.700 |ddv_scf|^2 =  2.849E-09

      iter #   3 total cpu time : 16760.0 secs   av.it.:   9.6
      thresh= 5.338E-06 alpha_mix =  0.700 |ddv_scf|^2 =  7.915E-11

      iter #   4 total cpu time : 16851.0 secs   av.it.:   9.1
      thresh= 8.897E-07 alpha_mix =  0.700 |ddv_scf|^2 =  6.678E-13

      iter #   5 total cpu time : 16943.2 secs   av.it.:   9.3
      thresh= 8.172E-08 alpha_mix =  0.700 |ddv_scf|^2 =  4.833E-15

     End of self-consistent calculation

     Convergence has been achieved 


     Representation #  2 mode #   2

     Self-consistent Calculation

      iter #   1 total cpu time : 17008.8 secs   av.it.:   5.8
      thresh= 1.000E-02 alpha_mix =  0.700 |ddv_scf|^2 =  8.511E-06

      iter #   2 total cpu time : 17105.9 secs   av.it.:   9.9
      thresh= 2.917E-04 alpha_mix =  0.700 |ddv_scf|^2 =  8.084E-06

      iter #   3 total cpu time : 17197.9 secs   av.it.:   9.3
      thresh= 2.843E-04 alpha_mix =  0.700 |ddv_scf|^2 =  9.655E-08

      iter #   4 total cpu time : 17288.6 secs   av.it.:   9.1
      thresh= 3.107E-05 alpha_mix =  0.700 |ddv_scf|^2 =  5.063E-09

      iter #   5 total cpu time : 17380.7 secs   av.it.:   9.3
      thresh= 7.115E-06 alpha_mix =  0.700 |ddv_scf|^2 =  2.570E-11

      iter #   6 total cpu time : 17475.0 secs   av.it.:   9.5
      thresh= 5.070E-07 alpha_mix =  0.700 |ddv_scf|^2 =  2.295E-12

      iter #   7 total cpu time : 17571.0 secs   av.it.:   9.7
      thresh= 1.515E-07 alpha_mix =  0.700 |ddv_scf|^2 =  3.781E-13

      iter #   8 total cpu time : 17666.0 secs   av.it.:   9.6
      thresh= 6.149E-08 alpha_mix =  0.700 |ddv_scf|^2 =  2.453E-14

      iter #   9 total cpu time : 17761.0 secs   av.it.:   9.6
      thresh= 1.566E-08 alpha_mix =  0.700 |ddv_scf|^2 =  3.982E-15

     End of self-consistent calculation

     Convergence has been achieved 


     Representation #  3 mode #   3

     Self-consistent Calculation

      iter #   1 total cpu time : 17822.0 secs   av.it.:   5.1
      thresh= 1.000E-02 alpha_mix =  0.700 |ddv_scf|^2 =  3.708E-07

      iter #   2 total cpu time : 17918.5 secs   av.it.:   9.8
      thresh= 6.090E-05 alpha_mix =  0.700 |ddv_scf|^2 =  4.635E-09

      iter #   3 total cpu time : 18015.0 secs   av.it.:   9.9
      thresh= 6.808E-06 alpha_mix =  0.700 |ddv_scf|^2 =  9.540E-11

      iter #   4 total cpu time : 18112.2 secs   av.it.:   9.9
      thresh= 9.767E-07 alpha_mix =  0.700 |ddv_scf|^2 =  5.024E-12

      iter #   5 total cpu time : 18210.2 secs   av.it.:  10.0
      thresh= 2.241E-07 alpha_mix =  0.700 |ddv_scf|^2 =  3.377E-12

      iter #   6 total cpu time : 18308.9 secs   av.it.:   9.3
      thresh= 1.838E-07 alpha_mix =  0.700 |ddv_scf|^2 =  2.680E-14

      iter #   7 total cpu time : 18409.5 secs   av.it.:  10.1
      thresh= 1.637E-08 alpha_mix =  0.700 |ddv_scf|^2 =  1.004E-14

      iter #   8 total cpu time : 18503.7 secs   av.it.:   9.4
      thresh= 1.002E-08 alpha_mix =  0.700 |ddv_scf|^2 =  3.958E-17

     End of self-consistent calculation

     Convergence has been achieved 


     Representation #  4 mode #   4

     Self-consistent Calculation

      iter #   1 total cpu time : 18572.4 secs   av.it.:   6.0
      thresh= 1.000E-02 alpha_mix =  0.700 |ddv_scf|^2 =  3.969E-06

      iter #   2 total cpu time : 18668.1 secs   av.it.:   9.7
      thresh= 1.992E-04 alpha_mix =  0.700 |ddv_scf|^2 =  3.383E-08

      iter #   3 total cpu time : 18763.7 secs   av.it.:   9.6
      thresh= 1.839E-05 alpha_mix =  0.700 |ddv_scf|^2 =  9.826E-11

      iter #   4 total cpu time : 18853.6 secs   av.it.:   9.0
      thresh= 9.913E-07 alpha_mix =  0.700 |ddv_scf|^2 =  4.322E-13

      iter #   5 total cpu time : 18946.8 secs   av.it.:   9.3
      thresh= 6.574E-08 alpha_mix =  0.700 |ddv_scf|^2 =  1.074E-14

      iter #   6 total cpu time : 19042.5 secs   av.it.:   9.7
      thresh= 1.036E-08 alpha_mix =  0.700 |ddv_scf|^2 =  2.949E-16

     End of self-consistent calculation

     Convergence has been achieved 


     Representation #  5 mode #   5

     Self-consistent Calculation

      iter #   1 total cpu time : 19115.5 secs   av.it.:   6.7
      thresh= 1.000E-02 alpha_mix =  0.700 |ddv_scf|^2 =  5.574E-05

      iter #   2 total cpu time : 19209.7 secs   av.it.:   9.5
      thresh= 7.466E-04 alpha_mix =  0.700 |ddv_scf|^2 =  3.447E-05

      iter #   3 total cpu time : 19299.8 secs   av.it.:   9.0
      thresh= 5.871E-04 alpha_mix =  0.700 |ddv_scf|^2 =  5.769E-08

      iter #   4 total cpu time : 19396.1 secs   av.it.:   9.8
      thresh= 2.402E-05 alpha_mix =  0.700 |ddv_scf|^2 =  1.600E-08

      iter #   5 total cpu time : 19488.5 secs   av.it.:   9.3
      thresh= 1.265E-05 alpha_mix =  0.700 |ddv_scf|^2 =  8.122E-11

      iter #   6 total cpu time : 19584.2 secs   av.it.:   9.7
      thresh= 9.012E-07 alpha_mix =  0.700 |ddv_scf|^2 =  2.379E-11

      iter #   7 total cpu time : 19676.9 secs   av.it.:   9.3
      thresh= 4.878E-07 alpha_mix =  0.700 |ddv_scf|^2 =  3.052E-13

      iter #   8 total cpu time : 19769.4 secs   av.it.:   9.3
      thresh= 5.524E-08 alpha_mix =  0.700 |ddv_scf|^2 =  1.616E-14

      iter #   9 total cpu time : 19862.8 secs   av.it.:   9.4
      thresh= 1.271E-08 alpha_mix =  0.700 |ddv_scf|^2 =  7.707E-16

     End of self-consistent calculation

     Convergence has been achieved 


     Representation #  6 mode #   6

     Self-consistent Calculation

      iter #   1 total cpu time : 19933.0 secs   av.it.:   6.3
      thresh= 1.000E-02 alpha_mix =  0.700 |ddv_scf|^2 =  6.970E-06

      iter #   2 total cpu time : 20030.2 secs   av.it.:   9.8
      thresh= 2.640E-04 alpha_mix =  0.700 |ddv_scf|^2 =  2.014E-07

      iter #   3 total cpu time : 20126.3 secs   av.it.:   9.7
      thresh= 4.487E-05 alpha_mix =  0.700 |ddv_scf|^2 =  2.042E-10

      iter #   4 total cpu time : 20222.1 secs   av.it.:   9.7
      thresh= 1.429E-06 alpha_mix =  0.700 |ddv_scf|^2 =  1.302E-11

      iter #   5 total cpu time : 20317.4 secs   av.it.:   9.7
      thresh= 3.608E-07 alpha_mix =  0.700 |ddv_scf|^2 =  4.499E-13

      iter #   6 total cpu time : 20416.7 secs   av.it.:  10.1
      thresh= 6.708E-08 alpha_mix =  0.700 |ddv_scf|^2 =  1.842E-13

      iter #   7 total cpu time : 20510.9 secs   av.it.:   9.4
      thresh= 4.292E-08 alpha_mix =  0.700 |ddv_scf|^2 =  3.978E-15

     End of self-consistent calculation

     Convergence has been achieved 


     Representation #  7 mode #   7

     Self-consistent Calculation

      iter #   1 total cpu time : 20579.6 secs   av.it.:   6.0
      thresh= 1.000E-02 alpha_mix =  0.700 |ddv_scf|^2 =  3.969E-06

      iter #   2 total cpu time : 20675.3 secs   av.it.:   9.7
      thresh= 1.992E-04 alpha_mix =  0.700 |ddv_scf|^2 =  3.383E-08

      iter #   3 total cpu time : 20771.0 secs   av.it.:   9.6
      thresh= 1.839E-05 alpha_mix =  0.700 |ddv_scf|^2 =  9.826E-11

      iter #   4 total cpu time : 20861.0 secs   av.it.:   9.0
      thresh= 9.913E-07 alpha_mix =  0.700 |ddv_scf|^2 =  4.322E-13

      iter #   5 total cpu time : 20954.4 secs   av.it.:   9.3
      thresh= 6.574E-08 alpha_mix =  0.700 |ddv_scf|^2 =  1.087E-14

      iter #   6 total cpu time : 21050.8 secs   av.it.:   9.8
      thresh= 1.043E-08 alpha_mix =  0.700 |ddv_scf|^2 =  5.879E-16

     End of self-consistent calculation

     Convergence has been achieved 


     Representation #  8 mode #   8

     Self-consistent Calculation

      iter #   1 total cpu time : 21123.8 secs   av.it.:   6.7
      thresh= 1.000E-02 alpha_mix =  0.700 |ddv_scf|^2 =  5.574E-05

      iter #   2 total cpu time : 21218.2 secs   av.it.:   9.5
      thresh= 7.466E-04 alpha_mix =  0.700 |ddv_scf|^2 =  3.447E-05

      iter #   3 total cpu time : 21308.3 secs   av.it.:   9.0
      thresh= 5.871E-04 alpha_mix =  0.700 |ddv_scf|^2 =  5.769E-08

      iter #   4 total cpu time : 21404.7 secs   av.it.:   9.7
      thresh= 2.402E-05 alpha_mix =  0.700 |ddv_scf|^2 =  1.600E-08

      iter #   5 total cpu time : 21497.1 secs   av.it.:   9.3
      thresh= 1.265E-05 alpha_mix =  0.700 |ddv_scf|^2 =  8.123E-11

      iter #   6 total cpu time : 21592.8 secs   av.it.:   9.7
      thresh= 9.013E-07 alpha_mix =  0.700 |ddv_scf|^2 =  2.379E-11

      iter #   7 total cpu time : 21685.5 secs   av.it.:   9.3
      thresh= 4.878E-07 alpha_mix =  0.700 |ddv_scf|^2 =  3.052E-13

      iter #   8 total cpu time : 21777.9 secs   av.it.:   9.3
      thresh= 5.525E-08 alpha_mix =  0.700 |ddv_scf|^2 =  1.616E-14

      iter #   9 total cpu time : 21871.4 secs   av.it.:   9.4
      thresh= 1.271E-08 alpha_mix =  0.700 |ddv_scf|^2 =  7.749E-16

     End of self-consistent calculation

     Convergence has been achieved 


     Representation #  9 mode #   9

     Self-consistent Calculation

      iter #   1 total cpu time : 21941.6 secs   av.it.:   6.3
      thresh= 1.000E-02 alpha_mix =  0.700 |ddv_scf|^2 =  6.970E-06

      iter #   2 total cpu time : 22038.7 secs   av.it.:   9.8
      thresh= 2.640E-04 alpha_mix =  0.700 |ddv_scf|^2 =  2.014E-07

      iter #   3 total cpu time : 22134.8 secs   av.it.:   9.7
      thresh= 4.487E-05 alpha_mix =  0.700 |ddv_scf|^2 =  2.042E-10

      iter #   4 total cpu time : 22230.7 secs   av.it.:   9.7
      thresh= 1.429E-06 alpha_mix =  0.700 |ddv_scf|^2 =  1.302E-11

      iter #   5 total cpu time : 22326.1 secs   av.it.:   9.7
      thresh= 3.608E-07 alpha_mix =  0.700 |ddv_scf|^2 =  4.497E-13

      iter #   6 total cpu time : 22425.5 secs   av.it.:  10.1
      thresh= 6.706E-08 alpha_mix =  0.700 |ddv_scf|^2 =  1.840E-13

      iter #   7 total cpu time : 22519.7 secs   av.it.:   9.4
      thresh= 4.290E-08 alpha_mix =  0.700 |ddv_scf|^2 =  3.974E-15

     End of self-consistent calculation

     Convergence has been achieved 


     Representation # 10 mode #  10

     Self-consistent Calculation

      iter #   1 total cpu time : 22581.9 secs   av.it.:   5.5
      thresh= 1.000E-02 alpha_mix =  0.700 |ddv_scf|^2 =  3.602E-07

      iter #   2 total cpu time : 22677.6 secs   av.it.:   9.6
      thresh= 6.002E-05 alpha_mix =  0.700 |ddv_scf|^2 =  2.849E-09

      iter #   3 total cpu time : 22773.4 secs   av.it.:   9.6
      thresh= 5.337E-06 alpha_mix =  0.700 |ddv_scf|^2 =  7.915E-11

      iter #   4 total cpu time : 22864.7 secs   av.it.:   9.1
      thresh= 8.897E-07 alpha_mix =  0.700 |ddv_scf|^2 =  6.719E-13

      iter #   5 total cpu time : 22958.1 secs   av.it.:   9.4
      thresh= 8.197E-08 alpha_mix =  0.700 |ddv_scf|^2 =  1.704E-14

      iter #   6 total cpu time : 23055.0 secs   av.it.:   9.8
      thresh= 1.305E-08 alpha_mix =  0.700 |ddv_scf|^2 =  5.138E-15

     End of self-consistent calculation

     Convergence has been achieved 


     Representation # 11 mode #  11

     Self-consistent Calculation

      iter #   1 total cpu time : 23120.8 secs   av.it.:   5.8
      thresh= 1.000E-02 alpha_mix =  0.700 |ddv_scf|^2 =  8.511E-06

      iter #   2 total cpu time : 23218.2 secs   av.it.:   9.9
      thresh= 2.917E-04 alpha_mix =  0.700 |ddv_scf|^2 =  8.084E-06

      iter #   3 total cpu time : 23310.4 secs   av.it.:   9.3
      thresh= 2.843E-04 alpha_mix =  0.700 |ddv_scf|^2 =  9.654E-08

      iter #   4 total cpu time : 23401.3 secs   av.it.:   9.1
      thresh= 3.107E-05 alpha_mix =  0.700 |ddv_scf|^2 =  5.062E-09

      iter #   5 total cpu time : 23493.5 secs   av.it.:   9.3
      thresh= 7.115E-06 alpha_mix =  0.700 |ddv_scf|^2 =  2.569E-11

      iter #   6 total cpu time : 23587.8 secs   av.it.:   9.5
      thresh= 5.069E-07 alpha_mix =  0.700 |ddv_scf|^2 =  2.295E-12

      iter #   7 total cpu time : 23683.8 secs   av.it.:   9.7
      thresh= 1.515E-07 alpha_mix =  0.700 |ddv_scf|^2 =  3.783E-13

      iter #   8 total cpu time : 23779.0 secs   av.it.:   9.6
      thresh= 6.150E-08 alpha_mix =  0.700 |ddv_scf|^2 =  2.454E-14

      iter #   9 total cpu time : 23874.1 secs   av.it.:   9.6
      thresh= 1.567E-08 alpha_mix =  0.700 |ddv_scf|^2 =  3.977E-15

     End of self-consistent calculation

     Convergence has been achieved 


     Representation # 12 mode #  12

     Self-consistent Calculation

      iter #   1 total cpu time : 23935.1 secs   av.it.:   5.1
      thresh= 1.000E-02 alpha_mix =  0.700 |ddv_scf|^2 =  3.708E-07

      iter #   2 total cpu time : 24031.7 secs   av.it.:   9.8
      thresh= 6.090E-05 alpha_mix =  0.700 |ddv_scf|^2 =  4.635E-09

      iter #   3 total cpu time : 24128.3 secs   av.it.:   9.9
      thresh= 6.808E-06 alpha_mix =  0.700 |ddv_scf|^2 =  9.540E-11

      iter #   4 total cpu time : 24225.7 secs   av.it.:   9.9
      thresh= 9.767E-07 alpha_mix =  0.700 |ddv_scf|^2 =  5.023E-12

      iter #   5 total cpu time : 24323.8 secs   av.it.:  10.0
      thresh= 2.241E-07 alpha_mix =  0.700 |ddv_scf|^2 =  3.375E-12

      iter #   6 total cpu time : 24416.5 secs   av.it.:   9.3
      thresh= 1.837E-07 alpha_mix =  0.700 |ddv_scf|^2 =  2.682E-14

      iter #   7 total cpu time : 24515.7 secs   av.it.:  10.1
      thresh= 1.638E-08 alpha_mix =  0.700 |ddv_scf|^2 =  1.004E-14

      iter #   8 total cpu time : 24609.7 secs   av.it.:   9.5
      thresh= 1.002E-08 alpha_mix =  0.700 |ddv_scf|^2 =  3.957E-17

     End of self-consistent calculation

     Convergence has been achieved 

     Number of q in the star =    1
     List of q in the star:
          1   0.000000000  -0.577350269   0.000000000

     Diagonalizing the dynamical matrix

     q = (    0.000000000  -0.577350269   0.000000000 ) 

 **************************************************************************
     freq (    1) =      10.052786 [THz] =     335.324854 [cm-1]
     freq (    2) =      10.239249 [THz] =     341.544590 [cm-1]
     freq (    3) =      16.468149 [THz] =     549.318328 [cm-1]
     freq (    4) =      16.581520 [THz] =     553.099965 [cm-1]
     freq (    5) =      18.247562 [THz] =     608.673146 [cm-1]
     freq (    6) =      18.829545 [THz] =     628.085998 [cm-1]
     freq (    7) =      35.129739 [THz] =    1171.801976 [cm-1]
     freq (    8) =      35.200789 [THz] =    1174.171944 [cm-1]
     freq (    9) =      39.024360 [THz] =    1301.712531 [cm-1]
     freq (   10) =      39.057534 [THz] =    1302.819091 [cm-1]
     freq (   11) =      39.387817 [THz] =    1313.836163 [cm-1]
     freq (   12) =      39.703896 [THz] =    1324.379418 [cm-1]
 **************************************************************************

     Mode symmetry, C_1 (1)     point group:

     freq (  1 -  1) =        335.3  [cm-1]   --> A                  
     freq (  2 -  2) =        341.5  [cm-1]   --> A                  
     freq (  3 -  3) =        549.3  [cm-1]   --> A                  
     freq (  4 -  4) =        553.1  [cm-1]   --> A                  
     freq (  5 -  5) =        608.7  [cm-1]   --> A                  
     freq (  6 -  6) =        628.1  [cm-1]   --> A                  
     freq (  7 -  7) =       1171.8  [cm-1]   --> A                  
     freq (  8 -  8) =       1174.2  [cm-1]   --> A                  
     freq (  9 -  9) =       1301.7  [cm-1]   --> A                  
     freq ( 10 - 10) =       1302.8  [cm-1]   --> A                  
     freq ( 11 - 11) =       1313.8  [cm-1]   --> A                  
     freq ( 12 - 12) =       1324.4  [cm-1]   --> A                  

     Calculation of q =    0.0000000  -0.5773503  -0.1923077

   Info: using nr1, nr2, nr3 values from input

   Info: using nr1, nr2, nr3 values from input

     G-vector sticks info
     --------------------
     sticks:   dense  smooth     PW     G-vecs:    dense   smooth      PW
     Sum         313     313    121                11359    11359    3071



     bravais-lattice index     =            4
     lattice parameter (alat)  =       4.7243  a.u.
     unit-cell volume          =     237.4218 (a.u.)^3
     number of atoms/cell      =            4
     number of atomic types    =            2
     number of electrons       =        16.00
     number of Kohn-Sham states=            8
     kinetic-energy cutoff     =      50.0000  Ry
     charge density cutoff     =     200.0000  Ry
     Exchange-correlation      =  SLA  PZ   NOGX NOGC ( 1  1  0  0 0 0)

     celldm(1)=   4.724315  celldm(2)=   0.000000  celldm(3)=   2.600000
     celldm(4)=   0.000000  celldm(5)=   0.000000  celldm(6)=   0.000000

     crystal axes: (cart. coord. in units of alat)
               a(1) = (   1.000000   0.000000   0.000000 )  
               a(2) = (  -0.500000   0.866025   0.000000 )  
               a(3) = (   0.000000   0.000000   2.600000 )  

     reciprocal axes: (cart. coord. in units 2 pi/alat)
               b(1) = (  1.000000  0.577350 -0.000000 )  
               b(2) = (  0.000000  1.154701  0.000000 )  
               b(3) = (  0.000000 -0.000000  0.384615 )  


     PseudoPot. # 1 for B  read from file:
     /home/claudio/SOFTWARE/PSEUDO_PWSCF/B.pz-vbc.UPF
     MD5 check sum: b59596b5d63edeea6a2b3a0beace49c5
     Pseudo is Norm-conserving, Zval =  3.0
     Generated by new atomic code, or converted to UPF format
     Using radial grid of  157 points,  1 beta functions with: 
                l(1) =   0

     PseudoPot. # 2 for N  read from file:
     /home/claudio/SOFTWARE/PSEUDO_PWSCF/N.pz-vbc.UPF
     MD5 check sum: f7a51f6f78412844d17f6e69b370b417
     Pseudo is Norm-conserving, Zval =  5.0
     Generated by new atomic code, or converted to UPF format
     Using radial grid of  161 points,  1 beta functions with: 
                l(1) =   0

     atomic species   valence    mass     pseudopotential
        B              3.00    10.81100     B ( 1.00)
        N              5.00    14.00600     N ( 1.00)

     No symmetry found



   Cartesian axes

     site n.     atom                  positions (alat units)
         1           B   tau(   1) = (   0.5000000   0.2886751  -0.6500000  )
         2           N   tau(   2) = (  -0.5000000  -0.2886751  -0.6500000  )
         3           N   tau(   3) = (   0.5000000   0.2886751   0.6500000  )
         4           B   tau(   4) = (  -0.5000000  -0.2886751   0.6500000  )

     number of k points=  1152

     Number of k-points >= 100: set verbosity='high' to print them.

     Dense  grid:    11359 G-vectors     FFT dimensions: (  24,  24,  60)

     Estimated max dynamical RAM per process >       4.87MB

     The potential is recalculated from file :
     ./_ph0/bn.save/charge-density.dat

     Starting wfc are   16 atomic wfcs

     Band Structure Calculation
     Davidson diagonalization with overlap

     ethr =  6.25E-11,  avg # of iterations = 13.0

     total cpu time spent up to now is      715.8 secs

     End of band structure calculation

     Number of k-points >= 100: set verbosity='high' to print the bands.

     highest occupied level (ev):     4.8384

     Writing output data file bn.save

                                                                                

     bravais-lattice index     =            4
     lattice parameter (alat)  =       4.7243  a.u.
     unit-cell volume          =     237.4218 (a.u.)^3
     number of atoms/cell      =            4
     number of atomic types    =            2
     kinetic-energy cut-off    =      50.0000  Ry
     charge density cut-off    =     200.0000  Ry
     convergence threshold     =      1.0E-14
     beta                      =       0.7000
     number of iterations used =            4
     Exchange-correlation      =  SLA  PZ   NOGX NOGC ( 1  1  0  0 0 0)


     celldm(1)=    4.72432  celldm(2)=    0.00000  celldm(3)=    2.60000
     celldm(4)=    0.00000  celldm(5)=    0.00000  celldm(6)=    0.00000

     crystal axes: (cart. coord. in units of alat)
               a(1) = (  1.0000  0.0000  0.0000 )  
               a(2) = ( -0.5000  0.8660  0.0000 )  
               a(3) = (  0.0000  0.0000  2.6000 )  

     reciprocal axes: (cart. coord. in units 2 pi/alat)
               b(1) = (  1.0000  0.5774 -0.0000 )  
               b(2) = (  0.0000  1.1547  0.0000 )  
               b(3) = (  0.0000 -0.0000  0.3846 )  


     Atoms inside the unit cell: 

     Cartesian axes

     site n.  atom      mass           positions (alat units)
        1     B   10.8110   tau(    1) = (    0.50000    0.28868   -0.65000  )
        2     N   14.0060   tau(    2) = (   -0.50000   -0.28868   -0.65000  )
        3     N   14.0060   tau(    3) = (    0.50000    0.28868    0.65000  )
        4     B   10.8110   tau(    4) = (   -0.50000   -0.28868    0.65000  )

     Computing dynamical matrix for 
                    q = (   0.0000000  -0.5773503  -0.1923077 )

     No symmetry!

     G cutoff =  113.0702  (  11359 G-vectors)     FFT grid: ( 24, 24, 60)
     number of k points=  1152

     PseudoPot. # 1 for B  read from file:
     /home/claudio/SOFTWARE/PSEUDO_PWSCF/B.pz-vbc.UPF
     MD5 check sum: b59596b5d63edeea6a2b3a0beace49c5
     Pseudo is Norm-conserving, Zval =  3.0
     Generated by new atomic code, or converted to UPF format
     Using radial grid of  157 points,  1 beta functions with: 
                l(1) =   0

     PseudoPot. # 2 for N  read from file:
     /home/claudio/SOFTWARE/PSEUDO_PWSCF/N.pz-vbc.UPF
     MD5 check sum: f7a51f6f78412844d17f6e69b370b417
     Pseudo is Norm-conserving, Zval =  5.0
     Generated by new atomic code, or converted to UPF format
     Using radial grid of  161 points,  1 beta functions with: 
                l(1) =   0

     Mode symmetry, C_1 (1)     point group:


     Atomic displacements:
     There are  12 irreducible representations

     Representation     1      1 modes -A  To be done

     Representation     2      1 modes -A  To be done

     Representation     3      1 modes -A  To be done

     Representation     4      1 modes -A  To be done

     Representation     5      1 modes -A  To be done

     Representation     6      1 modes -A  To be done

     Representation     7      1 modes -A  To be done

     Representation     8      1 modes -A  To be done

     Representation     9      1 modes -A  To be done

     Representation    10      1 modes -A  To be done

     Representation    11      1 modes -A  To be done

     Representation    12      1 modes -A  To be done



     Alpha used in Ewald sum =   2.0000
     PHONON       :     6h50m CPU        6h54m WALL



     Representation #  1 mode #   1

     Self-consistent Calculation

      iter #   1 total cpu time : 24912.7 secs   av.it.:   5.4
      thresh= 1.000E-02 alpha_mix =  0.700 |ddv_scf|^2 =  3.600E-07

      iter #   2 total cpu time : 25008.6 secs   av.it.:   9.7
      thresh= 6.000E-05 alpha_mix =  0.700 |ddv_scf|^2 =  2.832E-09

      iter #   3 total cpu time : 25104.3 secs   av.it.:   9.7
      thresh= 5.321E-06 alpha_mix =  0.700 |ddv_scf|^2 =  7.906E-11

      iter #   4 total cpu time : 25195.4 secs   av.it.:   9.1
      thresh= 8.891E-07 alpha_mix =  0.700 |ddv_scf|^2 =  6.581E-13

      iter #   5 total cpu time : 25287.2 secs   av.it.:   9.2
      thresh= 8.112E-08 alpha_mix =  0.700 |ddv_scf|^2 =  3.206E-15

     End of self-consistent calculation

     Convergence has been achieved 


     Representation #  2 mode #   2

     Self-consistent Calculation

      iter #   1 total cpu time : 25352.8 secs   av.it.:   5.8
      thresh= 1.000E-02 alpha_mix =  0.700 |ddv_scf|^2 =  8.287E-06

      iter #   2 total cpu time : 25450.0 secs   av.it.:   9.9
      thresh= 2.879E-04 alpha_mix =  0.700 |ddv_scf|^2 =  7.675E-06

      iter #   3 total cpu time : 25542.3 secs   av.it.:   9.3
      thresh= 2.770E-04 alpha_mix =  0.700 |ddv_scf|^2 =  9.975E-08

      iter #   4 total cpu time : 25632.9 secs   av.it.:   9.0
      thresh= 3.158E-05 alpha_mix =  0.700 |ddv_scf|^2 =  5.245E-09

      iter #   5 total cpu time : 25726.3 secs   av.it.:   9.4
      thresh= 7.242E-06 alpha_mix =  0.700 |ddv_scf|^2 =  2.459E-11

      iter #   6 total cpu time : 25819.9 secs   av.it.:   9.5
      thresh= 4.959E-07 alpha_mix =  0.700 |ddv_scf|^2 =  2.744E-13

      iter #   7 total cpu time : 25911.8 secs   av.it.:   9.1
      thresh= 5.238E-08 alpha_mix =  0.700 |ddv_scf|^2 =  3.893E-14

      iter #   8 total cpu time : 26004.4 secs   av.it.:   9.3
      thresh= 1.973E-08 alpha_mix =  0.700 |ddv_scf|^2 =  5.470E-16

     End of self-consistent calculation

     Convergence has been achieved 


     Representation #  3 mode #   3

     Self-consistent Calculation

      iter #   1 total cpu time : 26065.7 secs   av.it.:   5.2
      thresh= 1.000E-02 alpha_mix =  0.700 |ddv_scf|^2 =  3.949E-07

      iter #   2 total cpu time : 26164.0 secs   av.it.:  10.0
      thresh= 6.284E-05 alpha_mix =  0.700 |ddv_scf|^2 =  2.605E-08

      iter #   3 total cpu time : 26262.3 secs   av.it.:  10.1
      thresh= 1.614E-05 alpha_mix =  0.700 |ddv_scf|^2 =  1.377E-08

      iter #   4 total cpu time : 26354.9 secs   av.it.:   9.3
      thresh= 1.174E-05 alpha_mix =  0.700 |ddv_scf|^2 =  1.755E-10

      iter #   5 total cpu time : 26451.0 secs   av.it.:   9.7
      thresh= 1.325E-06 alpha_mix =  0.700 |ddv_scf|^2 =  1.585E-11

      iter #   6 total cpu time : 26544.2 secs   av.it.:   9.4
      thresh= 3.982E-07 alpha_mix =  0.700 |ddv_scf|^2 =  5.571E-13

      iter #   7 total cpu time : 26637.2 secs   av.it.:   9.3
      thresh= 7.464E-08 alpha_mix =  0.700 |ddv_scf|^2 =  3.716E-15

     End of self-consistent calculation

     Convergence has been achieved 


     Representation #  4 mode #   4

     Self-consistent Calculation

      iter #   1 total cpu time : 26705.6 secs   av.it.:   6.0
      thresh= 1.000E-02 alpha_mix =  0.700 |ddv_scf|^2 =  3.968E-06

      iter #   2 total cpu time : 26801.6 secs   av.it.:   9.7
      thresh= 1.992E-04 alpha_mix =  0.700 |ddv_scf|^2 =  3.374E-08

      iter #   3 total cpu time : 26897.4 secs   av.it.:   9.7
      thresh= 1.837E-05 alpha_mix =  0.700 |ddv_scf|^2 =  9.814E-11

      iter #   4 total cpu time : 26987.4 secs   av.it.:   8.9
      thresh= 9.907E-07 alpha_mix =  0.700 |ddv_scf|^2 =  3.393E-13

      iter #   5 total cpu time : 27079.9 secs   av.it.:   9.3
      thresh= 5.825E-08 alpha_mix =  0.700 |ddv_scf|^2 =  1.607E-15

     End of self-consistent calculation

     Convergence has been achieved 


     Representation #  5 mode #   5

     Self-consistent Calculation

      iter #   1 total cpu time : 27153.2 secs   av.it.:   6.8
      thresh= 1.000E-02 alpha_mix =  0.700 |ddv_scf|^2 =  5.504E-05

      iter #   2 total cpu time : 27248.1 secs   av.it.:   9.6
      thresh= 7.419E-04 alpha_mix =  0.700 |ddv_scf|^2 =  3.323E-05

      iter #   3 total cpu time : 27338.9 secs   av.it.:   8.9
      thresh= 5.764E-04 alpha_mix =  0.700 |ddv_scf|^2 =  6.497E-09

      iter #   4 total cpu time : 27441.0 secs   av.it.:  10.4
      thresh= 8.060E-06 alpha_mix =  0.700 |ddv_scf|^2 =  7.856E-09

      iter #   5 total cpu time : 27531.6 secs   av.it.:   9.0
      thresh= 8.863E-06 alpha_mix =  0.700 |ddv_scf|^2 =  6.608E-11

      iter #   6 total cpu time : 27627.0 secs   av.it.:   9.7
      thresh= 8.129E-07 alpha_mix =  0.700 |ddv_scf|^2 =  5.520E-13

      iter #   7 total cpu time : 27719.8 secs   av.it.:   9.2
      thresh= 7.430E-08 alpha_mix =  0.700 |ddv_scf|^2 =  3.845E-14

      iter #   8 total cpu time : 27816.6 secs   av.it.:   9.8
      thresh= 1.961E-08 alpha_mix =  0.700 |ddv_scf|^2 =  2.556E-15

     End of self-consistent calculation

     Convergence has been achieved 


     Representation #  6 mode #   6

     Self-consistent Calculation

[...]

     End of self-consistent calculation

     Convergence has been achieved 


     Representation #  2 mode #   2

     Self-consistent Calculation

      iter #   1 total cpu time : 60386.6 secs   av.it.:   5.7
      thresh= 1.000E-02 alpha_mix =  0.700 |ddv_scf|^2 =  2.337E-06

      iter #   2 total cpu time : 60487.0 secs   av.it.:   9.9
      thresh= 1.529E-04 alpha_mix =  0.700 |ddv_scf|^2 =  1.909E-06

      iter #   3 total cpu time : 60582.1 secs   av.it.:   9.3
      thresh= 1.382E-04 alpha_mix =  0.700 |ddv_scf|^2 =  4.065E-08

      iter #   4 total cpu time : 60676.7 secs   av.it.:   9.3
      thresh= 2.016E-05 alpha_mix =  0.700 |ddv_scf|^2 =  1.926E-09

      iter #   5 total cpu time : 60770.3 secs   av.it.:   9.1
      thresh= 4.388E-06 alpha_mix =  0.700 |ddv_scf|^2 =  2.099E-11

      iter #   6 total cpu time : 60866.8 secs   av.it.:   9.5
      thresh= 4.581E-07 alpha_mix =  0.700 |ddv_scf|^2 =  2.813E-13

      iter #   7 total cpu time : 60962.5 secs   av.it.:   9.3
      thresh= 5.304E-08 alpha_mix =  0.700 |ddv_scf|^2 =  1.103E-14

      iter #   8 total cpu time : 61059.4 secs   av.it.:   9.6
      thresh= 1.050E-08 alpha_mix =  0.700 |ddv_scf|^2 =  9.383E-17

     End of self-consistent calculation

     Convergence has been achieved 


     Representation #  3 mode #   3

     Self-consistent Calculation

      iter #   1 total cpu time : 61122.2 secs   av.it.:   5.2
      thresh= 1.000E-02 alpha_mix =  0.700 |ddv_scf|^2 =  3.949E-07

      iter #   2 total cpu time : 61223.0 secs   av.it.:  10.0
      thresh= 6.284E-05 alpha_mix =  0.700 |ddv_scf|^2 =  2.605E-08

      iter #   3 total cpu time : 61323.9 secs   av.it.:  10.1
      thresh= 1.614E-05 alpha_mix =  0.700 |ddv_scf|^2 =  1.378E-08

      iter #   4 total cpu time : 61419.0 secs   av.it.:   9.3
      thresh= 1.174E-05 alpha_mix =  0.700 |ddv_scf|^2 =  1.755E-10

      iter #   5 total cpu time : 61517.7 secs   av.it.:   9.7
      thresh= 1.325E-06 alpha_mix =  0.700 |ddv_scf|^2 =  1.585E-11

      iter #   6 total cpu time : 61613.2 secs   av.it.:   9.4
      thresh= 3.981E-07 alpha_mix =  0.700 |ddv_scf|^2 =  5.570E-13

      iter #   7 total cpu time : 61708.6 secs   av.it.:   9.3
      thresh= 7.463E-08 alpha_mix =  0.700 |ddv_scf|^2 =  3.715E-15

     End of self-consistent calculation

     Convergence has been achieved 


     Representation #  4 mode #   4

     Self-consistent Calculation

      iter #   1 total cpu time : 61783.1 secs   av.it.:   6.7
      thresh= 1.000E-02 alpha_mix =  0.700 |ddv_scf|^2 =  4.227E-05

      iter #   2 total cpu time : 61881.0 secs   av.it.:   9.7
      thresh= 6.502E-04 alpha_mix =  0.700 |ddv_scf|^2 =  2.493E-05

      iter #   3 total cpu time : 61973.4 secs   av.it.:   8.9
      thresh= 4.993E-04 alpha_mix =  0.700 |ddv_scf|^2 =  8.660E-09

      iter #   4 total cpu time : 62076.2 secs   av.it.:  10.3
      thresh= 9.306E-06 alpha_mix =  0.700 |ddv_scf|^2 =  5.683E-09

      iter #   5 total cpu time : 62169.0 secs   av.it.:   9.0
      thresh= 7.538E-06 alpha_mix =  0.700 |ddv_scf|^2 =  4.058E-11

      iter #   6 total cpu time : 62266.9 secs   av.it.:   9.7
      thresh= 6.370E-07 alpha_mix =  0.700 |ddv_scf|^2 =  5.645E-13

      iter #   7 total cpu time : 62362.0 secs   av.it.:   9.2
      thresh= 7.513E-08 alpha_mix =  0.700 |ddv_scf|^2 =  4.033E-14

      iter #   8 total cpu time : 62460.7 secs   av.it.:   9.8
      thresh= 2.008E-08 alpha_mix =  0.700 |ddv_scf|^2 =  1.490E-15

     End of self-consistent calculation

     Convergence has been achieved 


     Representation #  5 mode #   5

     Self-consistent Calculation

      iter #   1 total cpu time : 62533.4 secs   av.it.:   6.5
      thresh= 1.000E-02 alpha_mix =  0.700 |ddv_scf|^2 =  1.674E-05

      iter #   2 total cpu time : 62632.3 secs   av.it.:   9.8
      thresh= 4.092E-04 alpha_mix =  0.700 |ddv_scf|^2 =  8.339E-06

      iter #   3 total cpu time : 62725.5 secs   av.it.:   9.0
      thresh= 2.888E-04 alpha_mix =  0.700 |ddv_scf|^2 =  2.856E-08

      iter #   4 total cpu time : 62823.7 secs   av.it.:   9.7
      thresh= 1.690E-05 alpha_mix =  0.700 |ddv_scf|^2 =  1.880E-09

      iter #   5 total cpu time : 62917.4 secs   av.it.:   9.1
      thresh= 4.336E-06 alpha_mix =  0.700 |ddv_scf|^2 =  1.909E-11

      iter #   6 total cpu time : 63014.8 secs   av.it.:   9.6
      thresh= 4.369E-07 alpha_mix =  0.700 |ddv_scf|^2 =  5.359E-13

      iter #   7 total cpu time : 63111.1 secs   av.it.:   9.4
      thresh= 7.320E-08 alpha_mix =  0.700 |ddv_scf|^2 =  2.564E-14

      iter #   8 total cpu time : 63209.5 secs   av.it.:   9.7
      thresh= 1.601E-08 alpha_mix =  0.700 |ddv_scf|^2 =  2.216E-16

     End of self-consistent calculation

     Convergence has been achieved 


     Representation #  6 mode #   6

     Self-consistent Calculation

      iter #   1 total cpu time : 63281.3 secs   av.it.:   6.3
      thresh= 1.000E-02 alpha_mix =  0.700 |ddv_scf|^2 =  7.456E-06

      iter #   2 total cpu time : 63382.4 secs   av.it.:  10.0
      thresh= 2.731E-04 alpha_mix =  0.700 |ddv_scf|^2 =  6.226E-07

      iter #   3 total cpu time : 63482.0 secs   av.it.:   9.9
      thresh= 7.890E-05 alpha_mix =  0.700 |ddv_scf|^2 =  8.357E-08

      iter #   4 total cpu time : 63577.1 secs   av.it.:   9.3
      thresh= 2.891E-05 alpha_mix =  0.700 |ddv_scf|^2 =  7.422E-10

      iter #   5 total cpu time : 63674.6 secs   av.it.:   9.6
      thresh= 2.724E-06 alpha_mix =  0.700 |ddv_scf|^2 =  9.858E-11

      iter #   6 total cpu time : 63770.8 secs   av.it.:   9.4
      thresh= 9.929E-07 alpha_mix =  0.700 |ddv_scf|^2 =  1.211E-12

      iter #   7 total cpu time : 63868.9 secs   av.it.:   9.7
      thresh= 1.100E-07 alpha_mix =  0.700 |ddv_scf|^2 =  1.293E-14

      iter #   8 total cpu time : 63968.3 secs   av.it.:   9.9
      thresh= 1.137E-08 alpha_mix =  0.700 |ddv_scf|^2 =  2.597E-16

     End of self-consistent calculation

     Convergence has been achieved 


     Representation #  7 mode #   7

     Self-consistent Calculation

      iter #   1 total cpu time : 64042.8 secs   av.it.:   6.7
      thresh= 1.000E-02 alpha_mix =  0.700 |ddv_scf|^2 =  4.227E-05

      iter #   2 total cpu time : 64140.7 secs   av.it.:   9.7
      thresh= 6.502E-04 alpha_mix =  0.700 |ddv_scf|^2 =  2.493E-05

      iter #   3 total cpu time : 64233.1 secs   av.it.:   9.0
      thresh= 4.993E-04 alpha_mix =  0.700 |ddv_scf|^2 =  8.667E-09

      iter #   4 total cpu time : 64335.9 secs   av.it.:  10.3
      thresh= 9.310E-06 alpha_mix =  0.700 |ddv_scf|^2 =  5.687E-09

      iter #   5 total cpu time : 64428.9 secs   av.it.:   9.0
      thresh= 7.541E-06 alpha_mix =  0.700 |ddv_scf|^2 =  4.060E-11

      iter #   6 total cpu time : 64526.8 secs   av.it.:   9.7
      thresh= 6.372E-07 alpha_mix =  0.700 |ddv_scf|^2 =  5.647E-13

      iter #   7 total cpu time : 64621.9 secs   av.it.:   9.2
      thresh= 7.515E-08 alpha_mix =  0.700 |ddv_scf|^2 =  4.025E-14

      iter #   8 total cpu time : 64720.6 secs   av.it.:   9.8
      thresh= 2.006E-08 alpha_mix =  0.700 |ddv_scf|^2 =  1.468E-15

     End of self-consistent calculation

     Convergence has been achieved 


     Representation #  8 mode #   8

     Self-consistent Calculation

      iter #   1 total cpu time : 64793.3 secs   av.it.:   6.5
      thresh= 1.000E-02 alpha_mix =  0.700 |ddv_scf|^2 =  1.674E-05

      iter #   2 total cpu time : 64892.2 secs   av.it.:   9.8
      thresh= 4.092E-04 alpha_mix =  0.700 |ddv_scf|^2 =  8.338E-06

      iter #   3 total cpu time : 64985.2 secs   av.it.:   9.0
      thresh= 2.888E-04 alpha_mix =  0.700 |ddv_scf|^2 =  2.857E-08

      iter #   4 total cpu time : 65083.3 secs   av.it.:   9.7
      thresh= 1.690E-05 alpha_mix =  0.700 |ddv_scf|^2 =  1.882E-09

      iter #   5 total cpu time : 65176.9 secs   av.it.:   9.1
      thresh= 4.338E-06 alpha_mix =  0.700 |ddv_scf|^2 =  1.908E-11

      iter #   6 total cpu time : 65274.0 secs   av.it.:   9.6
      thresh= 4.368E-07 alpha_mix =  0.700 |ddv_scf|^2 =  5.361E-13

      iter #   7 total cpu time : 65370.1 secs   av.it.:   9.4
      thresh= 7.322E-08 alpha_mix =  0.700 |ddv_scf|^2 =  2.558E-14

      iter #   8 total cpu time : 65468.2 secs   av.it.:   9.7
      thresh= 1.599E-08 alpha_mix =  0.700 |ddv_scf|^2 =  2.158E-16

     End of self-consistent calculation

     Convergence has been achieved 


     Representation #  9 mode #   9

     Self-consistent Calculation

      iter #   1 total cpu time : 65539.9 secs   av.it.:   6.3
      thresh= 1.000E-02 alpha_mix =  0.700 |ddv_scf|^2 =  7.456E-06

      iter #   2 total cpu time : 65641.0 secs   av.it.:  10.0
      thresh= 2.731E-04 alpha_mix =  0.700 |ddv_scf|^2 =  6.219E-07

      iter #   3 total cpu time : 65740.7 secs   av.it.:   9.9
      thresh= 7.886E-05 alpha_mix =  0.700 |ddv_scf|^2 =  8.348E-08

      iter #   4 total cpu time : 65836.1 secs   av.it.:   9.3
      thresh= 2.889E-05 alpha_mix =  0.700 |ddv_scf|^2 =  7.401E-10

      iter #   5 total cpu time : 65934.0 secs   av.it.:   9.6
      thresh= 2.721E-06 alpha_mix =  0.700 |ddv_scf|^2 =  9.882E-11

      iter #   6 total cpu time : 66030.4 secs   av.it.:   9.4
      thresh= 9.941E-07 alpha_mix =  0.700 |ddv_scf|^2 =  1.210E-12

      iter #   7 total cpu time : 66128.7 secs   av.it.:   9.7
      thresh= 1.100E-07 alpha_mix =  0.700 |ddv_scf|^2 =  1.290E-14

      iter #   8 total cpu time : 66228.4 secs   av.it.:   9.9
      thresh= 1.136E-08 alpha_mix =  0.700 |ddv_scf|^2 =  2.503E-16

     End of self-consistent calculation

     Convergence has been achieved 


     Representation # 10 mode #  10

     Self-consistent Calculation

      iter #   1 total cpu time : 66295.5 secs   av.it.:   5.8
      thresh= 1.000E-02 alpha_mix =  0.700 |ddv_scf|^2 =  6.307E-06

      iter #   2 total cpu time : 66395.5 secs   av.it.:   9.9
      thresh= 2.511E-04 alpha_mix =  0.700 |ddv_scf|^2 =  5.760E-06

      iter #   3 total cpu time : 66490.2 secs   av.it.:   9.3
      thresh= 2.400E-04 alpha_mix =  0.700 |ddv_scf|^2 =  7.940E-08

      iter #   4 total cpu time : 66583.9 secs   av.it.:   9.1
      thresh= 2.818E-05 alpha_mix =  0.700 |ddv_scf|^2 =  3.867E-09

      iter #   5 total cpu time : 66679.6 secs   av.it.:   9.4
      thresh= 6.218E-06 alpha_mix =  0.700 |ddv_scf|^2 =  2.532E-11

      iter #   6 total cpu time : 66776.0 secs   av.it.:   9.5
      thresh= 5.032E-07 alpha_mix =  0.700 |ddv_scf|^2 =  3.311E-13

      iter #   7 total cpu time : 66871.3 secs   av.it.:   9.3
      thresh= 5.754E-08 alpha_mix =  0.700 |ddv_scf|^2 =  2.921E-14

      iter #   8 total cpu time : 66967.5 secs   av.it.:   9.4
      thresh= 1.709E-08 alpha_mix =  0.700 |ddv_scf|^2 =  5.984E-16

     End of self-consistent calculation

     Convergence has been achieved 


     Representation # 11 mode #  11

     Self-consistent Calculation

      iter #   1 total cpu time : 67033.3 secs   av.it.:   5.7
      thresh= 1.000E-02 alpha_mix =  0.700 |ddv_scf|^2 =  2.338E-06

      iter #   2 total cpu time : 67133.8 secs   av.it.:   9.9
      thresh= 1.529E-04 alpha_mix =  0.700 |ddv_scf|^2 =  1.911E-06

      iter #   3 total cpu time : 67228.8 secs   av.it.:   9.4
      thresh= 1.382E-04 alpha_mix =  0.700 |ddv_scf|^2 =  4.062E-08

      iter #   4 total cpu time : 67323.5 secs   av.it.:   9.3
      thresh= 2.015E-05 alpha_mix =  0.700 |ddv_scf|^2 =  1.925E-09

      iter #   5 total cpu time : 67417.1 secs   av.it.:   9.1
      thresh= 4.387E-06 alpha_mix =  0.700 |ddv_scf|^2 =  2.095E-11

      iter #   6 total cpu time : 67513.7 secs   av.it.:   9.5
      thresh= 4.577E-07 alpha_mix =  0.700 |ddv_scf|^2 =  2.797E-13

      iter #   7 total cpu time : 67609.4 secs   av.it.:   9.3
      thresh= 5.289E-08 alpha_mix =  0.700 |ddv_scf|^2 =  1.105E-14

      iter #   8 total cpu time : 67706.7 secs   av.it.:   9.6
      thresh= 1.051E-08 alpha_mix =  0.700 |ddv_scf|^2 =  1.685E-16

     End of self-consistent calculation

     Convergence has been achieved 


     Representation # 12 mode #  12

     Self-consistent Calculation

      iter #   1 total cpu time : 67769.5 secs   av.it.:   5.2
      thresh= 1.000E-02 alpha_mix =  0.700 |ddv_scf|^2 =  3.947E-07

      iter #   2 total cpu time : 67870.4 secs   av.it.:  10.0
      thresh= 6.283E-05 alpha_mix =  0.700 |ddv_scf|^2 =  2.588E-08

      iter #   3 total cpu time : 67971.3 secs   av.it.:  10.1
      thresh= 1.609E-05 alpha_mix =  0.700 |ddv_scf|^2 =  1.371E-08

      iter #   4 total cpu time : 68066.2 secs   av.it.:   9.3
      thresh= 1.171E-05 alpha_mix =  0.700 |ddv_scf|^2 =  1.750E-10

      iter #   5 total cpu time : 68164.8 secs   av.it.:   9.7
      thresh= 1.323E-06 alpha_mix =  0.700 |ddv_scf|^2 =  1.580E-11

      iter #   6 total cpu time : 68260.4 secs   av.it.:   9.3
      thresh= 3.974E-07 alpha_mix =  0.700 |ddv_scf|^2 =  5.582E-13

      iter #   7 total cpu time : 68355.8 secs   av.it.:   9.3
      thresh= 7.471E-08 alpha_mix =  0.700 |ddv_scf|^2 =  3.697E-15

     End of self-consistent calculation

     Convergence has been achieved 

     Number of q in the star =    1
     List of q in the star:
          1  -0.500000000  -0.866025404  -0.192307692

     Diagonalizing the dynamical matrix

     q = (   -0.500000000  -0.866025404  -0.192307692 ) 

 **************************************************************************
     freq (    1) =      10.173530 [THz] =     339.352449 [cm-1]
     freq (    2) =      10.173544 [THz] =     339.352907 [cm-1]
     freq (    3) =      16.513450 [THz] =     550.829400 [cm-1]
     freq (    4) =      16.513472 [THz] =     550.830131 [cm-1]
     freq (    5) =      18.547969 [THz] =     618.693637 [cm-1]
     freq (    6) =      18.547982 [THz] =     618.694083 [cm-1]
     freq (    7) =      35.168410 [THz] =    1173.091879 [cm-1]
     freq (    8) =      35.168536 [THz] =    1173.096097 [cm-1]
     freq (    9) =      39.037567 [THz] =    1302.153073 [cm-1]
     freq (   10) =      39.037576 [THz] =    1302.153360 [cm-1]
     freq (   11) =      39.554746 [THz] =    1319.404313 [cm-1]
     freq (   12) =      39.554983 [THz] =    1319.412203 [cm-1]
 **************************************************************************

     Mode symmetry, C_1 (1)     point group:

     freq (  1 -  1) =        339.4  [cm-1]   --> A                  
     freq (  2 -  2) =        339.4  [cm-1]   --> A                  
     freq (  3 -  3) =        550.8  [cm-1]   --> A                  
     freq (  4 -  4) =        550.8  [cm-1]   --> A                  
     freq (  5 -  5) =        618.7  [cm-1]   --> A                  
     freq (  6 -  6) =        618.7  [cm-1]   --> A                  
     freq (  7 -  7) =       1173.1  [cm-1]   --> A                  
     freq (  8 -  8) =       1173.1  [cm-1]   --> A                  
     freq (  9 -  9) =       1302.2  [cm-1]   --> A                  
     freq ( 10 - 10) =       1302.2  [cm-1]   --> A                  
     freq ( 11 - 11) =       1319.4  [cm-1]   --> A                  
     freq ( 12 - 12) =       1319.4  [cm-1]   --> A                  

     init_run     :      1.82s CPU      1.89s WALL (       7 calls)
     electrons    :   1664.33s CPU   1673.05s WALL (       7 calls)

     Called by init_run:
     wfcinit      :      0.00s CPU      0.00s WALL (       7 calls)
     potinit      :      0.07s CPU      0.14s WALL (       7 calls)

     Called by electrons:
     c_bands      :   1664.33s CPU   1673.04s WALL (       7 calls)
     v_of_rho     :      0.05s CPU      0.05s WALL (       8 calls)

     Called by c_bands:
     init_us_2    :     67.52s CPU     77.71s WALL (  494208 calls)
     cegterg      :   1435.26s CPU   1441.77s WALL (    8064 calls)

     Called by sum_band:

     Called by *egterg:
     h_psi        :  52549.93s CPU  52811.09s WALL ( 4907957 calls)
     g_psi        :     10.31s CPU     10.17s WALL (  104972 calls)
     cdiaghg      :     26.62s CPU     26.53s WALL (  113036 calls)

     Called by h_psi:
     h_psi:pot    :  52390.79s CPU  52651.99s WALL ( 4907957 calls)
     h_psi:calbec :    476.21s CPU    470.42s WALL ( 4907957 calls)
     vloc_psi     :  51525.72s CPU  51785.73s WALL ( 4907957 calls)
     add_vuspsi   :    375.58s CPU    367.50s WALL ( 4907957 calls)

     General routines
     calbec       :    874.09s CPU    865.68s WALL ( 9963806 calls)
     fft          :      1.87s CPU      1.97s WALL (    2225 calls)
     ffts         :     52.75s CPU     54.98s WALL (   63360 calls)
     fftw         :  57645.41s CPU  57990.60s WALL (79281968 calls)
     davcio       :    152.20s CPU    188.77s WALL ( 2147474 calls)

     Parallel routines
     fft_scatter  :   3482.96s CPU   3507.91s WALL (79347553 calls)

     PHONON       :    18h50m CPU       18h59m WALL

     INITIALIZATION: 
     phq_setup    :      0.13s CPU      0.24s WALL (       8 calls)
     phq_init     :     10.59s CPU     11.28s WALL (       8 calls)

     phq_init     :     10.59s CPU     11.28s WALL (       8 calls)
     init_vloc    :      0.05s CPU      0.05s WALL (       8 calls)
     init_us_1    :      0.05s CPU      0.05s WALL (       8 calls)

     DYNAMICAL MATRIX:
     dynmat0      :      6.52s CPU      6.80s WALL (       8 calls)
     phqscf       :  63952.56s CPU  64446.49s WALL (       8 calls)
     dynmatrix    :      0.02s CPU      0.02s WALL (       8 calls)

     phqscf       :  63952.56s CPU  64446.49s WALL (       8 calls)
     solve_linter :  63912.76s CPU  64397.06s WALL (      96 calls)
     drhodv       :     37.58s CPU     40.59s WALL (      96 calls)

     dynmat0      :      6.52s CPU      6.80s WALL (       8 calls)
     dynmat_us    :      6.13s CPU      6.40s WALL (       8 calls)
     d2ionq       :      0.38s CPU      0.38s WALL (       8 calls)

     dynmat_us    :      6.13s CPU      6.40s WALL (       8 calls)

     phqscf       :  63952.56s CPU  64446.49s WALL (       8 calls)
     solve_linter :  63912.76s CPU  64397.06s WALL (      96 calls)

     solve_linter :  63912.76s CPU  64397.06s WALL (      96 calls)
     dvqpsi_us    :    868.00s CPU    875.84s WALL (   62208 calls)
     ortho        :    171.56s CPU    174.18s WALL (  422784 calls)
     cgsolve      :  54640.68s CPU  54940.67s WALL (  422784 calls)
     incdrhoscf   :   5479.72s CPU   5545.11s WALL (  421056 calls)
     vpsifft      :   4542.23s CPU   4603.87s WALL (  355392 calls)
     dv_of_drho   :      2.17s CPU      2.29s WALL (     731 calls)
     mix_pot      :      1.39s CPU      3.22s WALL (     719 calls)

     dvqpsi_us    :    868.00s CPU    875.84s WALL (   62208 calls)
     dvqpsi_us_on :      9.02s CPU      8.95s WALL (   62208 calls)

     cgsolve      :  54640.68s CPU  54940.67s WALL (  422784 calls)
     ch_psi       :  53669.35s CPU  53960.35s WALL ( 4786857 calls)

     ch_psi       :  53669.35s CPU  53960.35s WALL ( 4786857 calls)
     h_psi        :  52549.93s CPU  52811.09s WALL ( 4907957 calls)
     last         :   2279.28s CPU   2295.68s WALL ( 4786857 calls)

     h_psi        :  52549.93s CPU  52811.09s WALL ( 4907957 calls)
     add_vuspsi   :    375.58s CPU    367.50s WALL ( 4907957 calls)

     incdrhoscf   :   5479.72s CPU   5545.11s WALL (  421056 calls)


      General routines
     calbec       :    874.09s CPU    865.68s WALL ( 9963806 calls)
     fft          :      1.87s CPU      1.97s WALL (    2225 calls)
     ffts         :     52.75s CPU     54.98s WALL (   63360 calls)
     fftw         :  57645.41s CPU  57990.60s WALL (79281968 calls)
     davcio       :    152.20s CPU    188.77s WALL ( 2147474 calls)
     write_rec    :      1.12s CPU      2.47s WALL (     815 calls)


     PHONON       :    18h50m CPU       18h59m WALL


   This run was terminated on:   7:54:20   7Apr2018            

=------------------------------------------------------------------------------=
   JOB DONE.
=------------------------------------------------------------------------------=
