ANIMSTEPS  12
CRYSTAL
PRIMVEC
    2.499999983    0.000000000    0.000000000
   -2.499999983    4.330126990    0.000000000
    0.000000000    0.000000000   10.583544278
PRIMCOORD  1
      4   1
   B      1.25000   0.72169   0.00000   0.00002  -0.05003  -0.00004
   N     -1.25000  -0.72169   0.00000   0.00002  -0.04997  -0.00004
   B      0.00000   2.88675   0.00000   0.00002  -0.05003  -0.00004
   N     -2.50000   1.44338   0.00000   0.00002  -0.04997  -0.00004
PRIMCOORD  2
      4   1
   B      1.25000   0.72169   0.00000  -0.00010   0.00004  -0.05018
   N     -1.25000  -0.72169   0.00000  -0.00010   0.00004  -0.04982
   B      0.00000   2.88675   0.00000  -0.00010   0.00004  -0.05018
   N     -2.50000   1.44338   0.00000  -0.00010   0.00004  -0.04982
PRIMCOORD  3
      4   1
   B      1.25000   0.72169   0.00000   0.05004   0.00002  -0.00010
   N     -1.25000  -0.72169   0.00000   0.04996   0.00002  -0.00009
   B      0.00000   2.88675   0.00000   0.05004   0.00002  -0.00010
   N     -2.50000   1.44338   0.00000   0.04996   0.00002  -0.00009
PRIMCOORD  4
      4   1
   B      1.25000   0.72169   0.00000  -0.00000   0.00000   0.02476
   N     -1.25000  -0.72169   0.00000  -0.00000   0.00000  -0.06624
   B      0.00000   2.88675   0.00000  -0.00000  -0.00000  -0.02476
   N     -2.50000   1.44338   0.00000  -0.00000   0.00000   0.06623
PRIMCOORD  5
      4   1
   B      1.25000   0.72169   0.00000   0.05110  -0.00000  -0.00000
   N     -1.25000  -0.72169   0.00000  -0.04888  -0.00000  -0.00000
   B      0.00000   2.88675   0.00000  -0.05110   0.00000  -0.00000
   N     -2.50000   1.44338   0.00000   0.04888   0.00000  -0.00000
PRIMCOORD  6
      4   1
   B      1.25000   0.72169   0.00000   0.00000   0.00000  -0.06794
   N     -1.25000  -0.72169   0.00000  -0.00000   0.00000  -0.01960
   B      0.00000   2.88675   0.00000  -0.00000  -0.00000   0.06794
   N     -2.50000   1.44338   0.00000   0.00000  -0.00000   0.01960
PRIMCOORD  7
      4   1
   B      1.25000   0.72169   0.00000  -0.00000  -0.00000  -0.05582
   N     -1.25000  -0.72169   0.00000  -0.00000   0.00000   0.04340
   B      0.00000   2.88675   0.00000  -0.00000  -0.00000  -0.05582
   N     -2.50000   1.44338   0.00000  -0.00000  -0.00000   0.04340
PRIMCOORD  8
      4   1
   B      1.25000   0.72169   0.00000   0.00000   0.00528   0.00000
   N     -1.25000  -0.72169   0.00000   0.00000   0.07051  -0.00000
   B      0.00000   2.88675   0.00000  -0.00000  -0.00528  -0.00000
   N     -2.50000   1.44338   0.00000  -0.00000  -0.07051   0.00000
PRIMCOORD  9
      4   1
   B      1.25000   0.72169   0.00000   0.05503  -0.00001  -0.00000
   N     -1.25000  -0.72169   0.00000   0.04441  -0.00000  -0.00000
   B      0.00000   2.88675   0.00000  -0.05503   0.00001  -0.00000
   N     -2.50000   1.44338   0.00000  -0.04441   0.00000  -0.00000
PRIMCOORD 10
      4   1
   B      1.25000   0.72169   0.00000  -0.00001  -0.07059  -0.00000
   N     -1.25000  -0.72169   0.00000  -0.00000   0.00408  -0.00000
   B      0.00000   2.88675   0.00000   0.00000   0.07059  -0.00000
   N     -2.50000   1.44338   0.00000   0.00001  -0.00408   0.00000
PRIMCOORD 11
      4   1
   B      1.25000   0.72169   0.00000   0.00001   0.05595   0.00000
   N     -1.25000  -0.72169   0.00000  -0.00001  -0.04324  -0.00000
   B      0.00000   2.88675   0.00000   0.00001   0.05595  -0.00000
   N     -2.50000   1.44338   0.00000  -0.00001  -0.04324  -0.00000
PRIMCOORD 12
      4   1
   B      1.25000   0.72169   0.00000   0.05594  -0.00002   0.00000
   N     -1.25000  -0.72169   0.00000  -0.04325   0.00001   0.00000
   B      0.00000   2.88675   0.00000   0.05594  -0.00001   0.00000
   N     -2.50000   1.44338   0.00000  -0.04325   0.00001   0.00000
